 +-------------------------------------------------+
 |                                                 |
 |      CCC   AA    SSS  TTTTT  EEEEE  PPPP        |
 |     C     A  A  S       T    E      P   P       |
 |     C     AAAA   SS     T    EEE    PPPP        |
 |     C     A  A     S    T    E      P           |
 |      CCC  A  A  SSS     T    EEEEE  P           |
 |                                                 |
 +-------------------------------------------------+
 |                                                 |
 | Welcome to Academic Release CASTEP version 21.11|          
 | Ab Initio Total Energy Program                  |
 |                                                 |
 | Authors:                                        |
 | M. Segall, M. Probert, C. Pickard, P. Hasnip,   |
 | S. Clark, K. Refson, J. R. Yates, M. Payne      |
 |                                                 |
 | Contributors:                                   |
 | P. Lindan, P. Haynes, J. White, V. Milman,      |
 | N. Govind, M. Gibson, P. Tulip, V. Cocula,      |
 | B. Montanari, D. Quigley, M. Glover,            |
 | L. Bernasconi, A. Perlov, M. Plummer,           |
 | E. McNellis, J. Meyer, J. Gale, D. Jochym       |
 | J. Aarons, B. Walker, R. Gillen, D. Jones       |
 | T. Green, I. J. Bush, C. J. Armstrong,          |
 | E. J. Higgins, E. L. Brown, M. S. McFly,        |
 | J. Wilkins, B-C. Shih, P. J. P. Byrne,          |
 | R. J. Maurer, J. C. Womack, J. Dziedzic,        |
 | A. Bartok-Partay, L. LeBlanc                    |
 |                                                 |
 | Copyright (c) 2000 - 2021                       |
 |                                                 |
 |     Distributed under license from Cambridge    |
 |     Enterprise for academic use only.           |
 |                                                 |
 | Please cite                                     |
 |                                                 |
 |     "First principles methods using CASTEP"     |
 |                                                 |
 |         Zeitschrift fuer Kristallographie       |
 |           220(5-6) pp. 567-570 (2005)           |
 |                                                 |
 | S. J. Clark, M. D. Segall, C. J. Pickard,       |
 | P. J. Hasnip, M. J. Probert, K. Refson,         |
 | M. C. Payne                                     |
 |                                                 |
 |       in all publications arising from          |
 |              your use of CASTEP                 |
 |                                                 |
 +-------------------------------------------------+
 |                                                 |
 |              http://www.castep.org              |
 |                                                 |
 +-------------------------------------------------+
 
 
 
 Compiled for linux_x86_64_cray-XT on Tue, 01 Mar 2022 09:19:15 +0000
 from code version 7d4405a8a+  HEAD  Sat Nov 27 13:38:33 2021 +0000
 Compiler: Cray Fortran 12.0.3; Optimisation: fast
 MATHLIBS: LibSci (LAPACK version 3.6.1)
 FFT Lib : fftw3 version commercial-fftw-3.3.8-sse2-avx-avx2-avx2_128
 Fundamental constants values: CODATA 2014
 
 Run started: Wed, 02 Nov 2022 15:23:09 +0000
 Info: number of up-spin electrons is not equal to the
       number of down-spins but spin_polarized=false
     - consider setting spin_polarized=true.
 
 Pseudo atomic calculation performed for H 1s1
 
 Converged in 13 iterations to a total energy of -12.4856 eV
 
 Pseudo atomic calculation performed for C 2s2 2p2
 
 Converged in 18 iterations to a total energy of -152.4291 eV
 Calculation parallelised over 128 processes.
 Data is distributed by G-vector(16-way) and k-point(8-way)

 ************************************ Title ************************************
 

 ***************************** General Parameters ******************************
  
 output verbosity                               : normal  (1)
 write checkpoint data to                       : data.check
 type of calculation                            : single point energy
 stress calculation                             : off
 density difference calculation                 : off
 electron localisation func (ELF) calculation   : off
 Hirshfeld analysis                             : off
 polarisation (Berry phase) analysis            : off
 molecular orbital projected DOS                : off
 deltaSCF calculation                           : off
 unlimited duration calculation
 timing information                             : on
 memory usage estimate                          : on
 write extra output files                       : on
 write final potential to formatted file        : off
 write final density to formatted file          : off
 write BibTeX reference list                    : on
 write OTFG pseudopotential files               : on
 write electrostatic potential file             : on
 write bands file                               : on
 checkpoint writing                             : write castep_bin only
  
 output         length unit                     : A
 output           mass unit                     : amu
 output           time unit                     : ps
 output         charge unit                     : e
 output           spin unit                     : hbar/2
 output         energy unit                     : eV
 output          force unit                     : eV/A
 output       velocity unit                     : A/ps
 output       pressure unit                     : GPa
 output     inv_length unit                     : 1/A
 output      frequency unit                     : cm-1
 output force constant unit                     : eV/A**2
 output         volume unit                     : A**3
 output   IR intensity unit                     : (D/A)**2/amu
 output         dipole unit                     : D
 output         efield unit                     : eV/A/e
 output        entropy unit                     : J/mol/K
 output    efield chi2 unit                     : pm/V
  
 wavefunctions paging                           : none
 random number generator seed                   : randomised (152309649)
 data distribution                              : optimal for this architecture
 optimization strategy                          : maximize speed(+++)

 *********************** Exchange-Correlation Parameters ***********************
  
 using functional                               : Perdew Burke Ernzerhof
 relativistic treatment                         : Koelling-Harmon
 DFT+D: Semi-empirical dispersion correction    : on
 SEDC with                                      : MBD@rsSCS method

 ************************* Pseudopotential Parameters **************************
  
 pseudopotential representation                 : reciprocal space
 <beta|phi> representation                      : reciprocal space
 spin-orbit coupling                            : off

 **************************** Basis Set Parameters *****************************
  
 plane wave basis set cut-off                   :   800.0000   eV
 size of standard grid                          :     1.7500
 size of   fine   gmax                          :    25.3584   1/A
 finite basis set correction                    : none

 **************************** Electronic Parameters ****************************
  
 number of  electrons                           :  129.0    
 net charge of system                           :  0.000    
 treating system as non-spin-polarized
 number of bands                                :         98

 ********************* Electronic Minimization Parameters **********************
  
 Method: Treating system as metallic with density mixing treatment of electrons,
         and number of  SD  steps               :          1
         and number of  CG  steps               :          4
  
 total energy / atom convergence tol.           : 0.1000E-05   eV
 eigen-energy convergence tolerance             : 0.3367E-06   eV
 max force / atom convergence tol.              : ignored
 convergence tolerance window                   :          3   cycles
 max. number of SCF cycles                      :        100
 number of fixed-spin iterations                :         10
 smearing scheme                                : Gaussian
 smearing width                                 : 0.2000       eV
 Fermi energy convergence tolerance             : 0.2721E-13   eV
 periodic dipole correction                     : NONE

 ************************** Density Mixing Parameters **************************
  
 density-mixing scheme                          : Broyden
 max. length of mixing history                  :         20
 charge density mixing amplitude                : 0.8000    
 cut-off energy for mixing                      :  800.0       eV

 *********************** Population Analysis Parameters ************************
  
 Population analysis with cutoff                :  3.000       A
 Population analysis output                     : summary and pdos components

 *******************************************************************************
  
 
                           -------------------------------
                                      Unit Cell
                           -------------------------------
        Real Lattice(A)                      Reciprocal Lattice(1/A)
     9.8800000     0.0000000     0.0000000        0.635949930   0.367165863   0.000000000
    -4.9400000     8.5563310     0.0000000        0.000000000   0.734331726   0.000000000
     0.0000000     0.0000000    20.0339000        0.000000000   0.000000000   0.313627666
 
                       Lattice parameters(A)       Cell Angles
                    a =      9.880000          alpha =   90.000000
                    b =      9.880000          beta  =   90.000000
                    c =     20.033900          gamma =  120.000000
 
                       Current cell volume =          1693.596795       A**3
                                   density =             0.227534   AMU/A**3
                                           =             0.377829     g/cm^3
 
                           -------------------------------
                                     Cell Contents
                           -------------------------------
                         Total number of ions in cell =   33
                      Total number of species in cell =    2
                        Max number of any one species =   32
 
            xxxxxxxxxxxxxxxxxxxxxxxxxxxxxxxxxxxxxxxxxxxxxxxxxxxxxxxxxxxx
            x  Element    Atom        Fractional coordinates of atoms  x
            x            Number           u          v          w      x
            x----------------------------------------------------------x
            x  H            1         0.416753   0.333198   0.578198   x 
            x  C            1         0.165709   0.083576   0.500091   x 
            x  C            2        -0.000672  -0.000186   0.495898   x 
            x  C            3         0.165690   0.332150   0.500073   x 
            x  C            4        -0.000744   0.249447   0.495912   x 
            x  C            5         0.166751   0.583064   0.498441   x 
            x  C            6        -0.000475   0.499566   0.497713   x 
            x  C            7         0.166761   0.834171   0.498470   x 
            x  C            8        -0.000436   0.750309   0.497716   x 
            x  C            9         0.417574   0.083532   0.500110   x 
            x  C           10         0.249586  -0.000485   0.500571   x 
            x  C           11         0.416530   0.333257   0.521932   x 
            x  C           12         0.245763   0.247883   0.504331   x 
            x  C           13         0.417633   0.584139   0.500093   x 
            x  C           14         0.249562   0.500202   0.500533   x 
            x  C           15         0.416467   0.833446   0.495947   x 
            x  C           16         0.250188   0.750379   0.497714   x 
            x  C           17         0.666766   0.083051   0.494969   x 
            x  C           18         0.500297  -0.000214   0.495995   x 
            x  C           19         0.666297   0.332207   0.500137   x 
            x  C           20         0.501908   0.247873   0.504296   x 
            x  C           21         0.666303   0.584174   0.500136   x 
            x  C           22         0.501927   0.504061   0.504333   x 
            x  C           23         0.666793   0.833731   0.494922   x 
            x  C           24         0.500347   0.750686   0.495963   x 
            x  C           25         0.916430   0.083135   0.494879   x 
            x  C           26         0.750029  -0.000093   0.494200   x 
            x  C           27         0.916723   0.333416   0.495924   x 
            x  C           28         0.750120   0.249515   0.495995   x 
            x  C           29         0.915994   0.583146   0.498497   x 
            x  C           30         0.750411   0.500262   0.500617   x 
            x  C           31         0.916674   0.833450   0.495889   x 
            x  C           32         0.750119   0.750664   0.495946   x 
            xxxxxxxxxxxxxxxxxxxxxxxxxxxxxxxxxxxxxxxxxxxxxxxxxxxxxxxxxxxx
 
 
                         No user defined ionic velocities
 
                           -------------------------------
                                   Details of Species
                           -------------------------------
 
                               Mass of species in AMU
                                    H    1.0079400
                                    C   12.0107000
 
                          Electric Quadrupole Moment (Barn)
                                    H    0.0028600 Isotope  2
                                    C    0.0332700 Isotope 11
 
                          Files used for pseudopotentials:
                                    H H_EXT_PBE_OTF.usp
                                    C C_EXT_PBE_OTF.usp
 
                           -------------------------------
                              k-Points For BZ Sampling
                           -------------------------------
                       MP grid size for SCF calculation is  4  4  1
                            with an offset of   0.000  0.000  0.000
                       Number of kpoints used =   8
 
                           -------------------------------
                               Symmetry and Constraints
                           -------------------------------
 
                      Maximum deviation from symmetry = 0.188002E-14     ANG
 
                      Number of symmetry operations   = 1
         There are no ionic constraints specified or generated for this cell
                      Point group of crystal =     1: C1, 1, 1
                      Space group of crystal =     1: P1, P 1
 
             Set iprint > 1 for details on symmetry rotations/translations
 
                         Centre of mass is NOT constrained
 
                         Number of cell constraints= 6
                         Cell constraints are:  0 0 0 0 0 0
 
                         External pressure/stress (GPa)
                          0.00000   0.00000   0.00000
                                    0.00000   0.00000
                                              0.00000
 
                                --------------------
                                  DFT-D parameters
                                --------------------
 
                          Dispersion-correction scheme : MBD*      
                        Parameter sR :   0.830000 (default)
 
        xxxxxxxxxxxxxxxxxxxxxxxxxxxxxxxxxxxxxxxxxxxxxxxxxxxxxxxxxxxxxxxxxxxx
        x              Atomic DFT-D parameters                             x
        x  Species      C6            alpha        R0                      x
        x               eV A^6        A^3          A                       x
        x------------------------------------------------------------------x
        x  H             3.8839       0.6668       1.6404   (default)      x
        x  C            27.8448       1.7782       1.8997   (default)      x
        xxxxxxxxxxxxxxxxxxxxxxxxxxxxxxxxxxxxxxxxxxxxxxxxxxxxxxxxxxxxxxxxxxxx
 
  
+---------------- MEMORY AND SCRATCH DISK ESTIMATES PER PROCESS --------------+
|                                                     Memory          Disk    |
| Baseline code, static data and system overhead      770.0 MB         0.0 MB |
| BLAS internal memory storage                          0.0 MB         0.0 MB |
| Model and support data                               37.0 MB         0.0 MB |
| Electronic energy minimisation requirements          63.7 MB         0.0 MB |
| Force calculation requirements                       12.6 MB         0.0 MB |
|                                               ----------------------------- |
| Approx. total storage required per process          870.6 MB         0.0 MB |
|                                                                             |
| Requirements will fluctuate during execution and may exceed these estimates |
+-----------------------------------------------------------------------------+
Calculating approximate eigenstates for fixed initial Hamiltonian
Cut-off for approx. calculation is  119.774 eV
Improving approx. states at cut-off of  463.000 eV
Resetting cut-off to  800.000 eV
Calculating total energy with cut-off of  800.000 eV.
------------------------------------------------------------------------ <-- SCF
SCF loop      Energy           Fermi           Energy gain       Timer   <-- SCF
                               energy          per atom          (sec)   <-- SCF
------------------------------------------------------------------------ <-- SCF
Initial  -4.74132252E+003  0.00000000E+000                         9.71  <-- SCF
      1  -5.20040476E+003 -5.56008213E+000   1.39115830E+001      15.86  <-- SCF
      2  -5.20062566E+003 -5.56142753E+000   6.69407098E-003      21.91  <-- SCF
      3  -5.18754290E+003 -4.30439901E+000  -3.96447428E-001      28.52  <-- SCF
      4  -5.18676014E+003 -3.78811665E+000  -2.37198925E-002      35.21  <-- SCF
      5  -5.18657928E+003 -3.58656663E+000  -5.48050898E-003      42.52  <-- SCF
      6  -5.18644541E+003 -3.31653907E+000  -4.05682578E-003      49.30  <-- SCF
      7  -5.18639478E+003 -3.16633858E+000  -1.53410494E-003      55.89  <-- SCF
      8  -5.18637543E+003 -3.04167455E+000  -5.86519560E-004      62.37  <-- SCF
      9  -5.18631646E+003 -2.82421629E+000  -1.78684338E-003      68.83  <-- SCF
     10  -5.18632648E+003 -2.74966946E+000   3.03696614E-004      74.86  <-- SCF
     11  -5.18634128E+003 -2.64999525E+000   4.48466855E-004      80.63  <-- SCF
     12  -5.18634162E+003 -2.55681588E+000   1.02915763E-005      86.51  <-- SCF
     13  -5.18634326E+003 -2.52863629E+000   4.97798843E-005      92.32  <-- SCF
     14  -5.18634057E+003 -2.41383324E+000  -8.15902473E-005      97.99  <-- SCF
     15  -5.18634162E+003 -2.37239010E+000   3.19060707E-005     103.37  <-- SCF
     16  -5.18634791E+003 -2.34760995E+000   1.90420437E-004     108.51  <-- SCF
     17  -5.18635141E+003 -2.29976237E+000   1.06162119E-004     113.68  <-- SCF
     18  -5.18635347E+003 -2.30484695E+000   6.22324490E-005     118.47  <-- SCF
     19  -5.18635475E+003 -2.30418957E+000   3.89093959E-005     123.74  <-- SCF
     20  -5.18635506E+003 -2.30308614E+000   9.48182197E-006     128.81  <-- SCF
     21  -5.18635508E+003 -2.30312551E+000   6.72326379E-007     134.02  <-- SCF
     22  -5.18635512E+003 -2.30318700E+000   1.06240609E-006     138.99  <-- SCF
     23  -5.18635514E+003 -2.30305890E+000   4.69152302E-007     144.07  <-- SCF
     24  -5.18635516E+003 -2.30288940E+000   8.60799453E-007     149.29  <-- SCF
     25  -5.18635517E+003 -2.30282224E+000   1.36741328E-007     154.37  <-- SCF
------------------------------------------------------------------------ <-- SCF
 
Final energy, E             =  -5186.242692106     eV
Final free energy (E-TS)    =  -5186.355168059     eV
(energies not corrected for finite basis set)
 
NB est. 0K energy (E-0.5TS)      =  -5186.298930083     eV
 
 WARNING: Your unit cell might be too small to get accurate results for van der Waals
(SEDC) Total Energy Correction : -0.273923E+01 eV

Dispersion corrected final energy*, Ecor          =  -5188.981926063     eV
Dispersion corrected final free energy* (Ecor-TS) =  -5189.094402017     eV
NB dispersion corrected est. 0K energy* (Ecor-0.5TS) =  -5189.038164040     eV

Writing analysis data to data.castep_bin
 
 ************************** Forces **************************
 *                                                          *
 *               Cartesian components (eV/A)                *
 * -------------------------------------------------------- *
 *                         x            y            z      *
 *                                                          *
 * H               1     -0.00909      0.00049      0.00235 *
 * C               1     -0.00297     -0.00047     -0.00156 *
 * C               2     -0.00311      0.00312     -0.00210 *
 * C               3     -0.00369     -0.00525     -0.00045 *
 * C               4      0.00206     -0.00346     -0.00238 *
 * C               5      0.00107     -0.00009      0.00028 *
 * C               6      0.00018     -0.00741      0.00196 *
 * C               7      0.00021     -0.00067     -0.00118 *
 * C               8     -0.00566      0.00332      0.00217 *
 * C               9      0.00875     -0.00049     -0.00205 *
 * C              10     -0.00248     -0.00220      0.00702 *
 * C              11      0.00444     -0.00062     -0.00157 *
 * C              12     -0.00396     -0.00089     -0.00030 *
 * C              13      0.00373      0.00860     -0.00054 *
 * C              14     -0.00227      0.00008      0.00919 *
 * C              15      0.00101     -0.00081      0.00439 *
 * C              16      0.00593      0.00323      0.00177 *
 * C              17     -0.00149      0.00125     -0.00886 *
 * C              18      0.00077      0.00278     -0.00686 *
 * C              19      0.00429     -0.00479     -0.00311 *
 * C              20     -0.00655      0.00200      0.00490 *
 * C              21     -0.00052      0.00386     -0.00264 *
 * C              22     -0.00265     -0.00078      0.00206 *
 * C              23      0.00023     -0.00203     -0.00588 *
 * C              24      0.00325     -0.00161     -0.00441 *
 * C              25      0.00200      0.00139     -0.00342 *
 * C              26      0.00120      0.00001      0.00528 *
 * C              27      0.00217      0.00281      0.00569 *
 * C              28     -0.00150     -0.00299     -0.00659 *
 * C              29      0.00119      0.00113     -0.00220 *
 * C              30      0.00170      0.00236      0.00524 *
 * C              31      0.00575     -0.00228      0.00765 *
 * C              32     -0.00401      0.00041     -0.00387 *
 *                                                          *
 ************************************************************
 
 Pseudo atomic calculation performed for H 1s1
 
 Converged in 13 iterations to a total energy of -12.4856 eV
 
 Pseudo atomic calculation performed for C 2s2 2p2
 
 Converged in 18 iterations to a total energy of -152.4291 eV
Charge spilling parameter for spin component 1 = 1.10%
 
            Orbital Populations       
     Ion    Atom   Orbital             Charge
  -------------------------------------------
      H     1      S                    0.678
      C     1      S                    1.025
      C     1      Px                   0.987
      C     1      Py                   0.990
      C     1      Pz                   1.004
      C     2      S                    1.026
      C     2      Px                   0.987
      C     2      Py                   0.987
      C     2      Pz                   0.999
      C     3      S                    1.026
      C     3      Px                   0.991
      C     3      Py                   0.986
      C     3      Pz                   1.004
      C     4      S                    1.027
      C     4      Px                   0.986
      C     4      Py                   0.988
      C     4      Pz                   0.999
      C     5      S                    1.028
      C     5      Px                   0.987
      C     5      Py                   0.986
      C     5      Pz                   1.000
      C     6      S                    1.028
      C     6      Px                   0.985
      C     6      Py                   0.987
      C     6      Pz                   1.003
      C     7      S                    1.027
      C     7      Px                   0.986
      C     7      Py                   0.988
      C     7      Pz                   1.000
      C     8      S                    1.028
      C     8      Px                   0.986
      C     8      Py                   0.985
      C     8      Pz                   1.003
      C     9      S                    1.026
      C     9      Px                   0.987
      C     9      Py                   0.990
      C     9      Pz                   1.004
      C    10      S                    1.031
      C    10      Px                   0.982
      C    10      Py                   0.988
      C    10      Pz                   1.009
      C    11      S                    1.176
      C    11      Px                   0.978
      C    11      Py                   0.977
      C    11      Pz                   1.165
      C    12      S                    1.038
      C    12      Px                   0.972
      C    12      Py                   0.987
      C    12      Pz                   0.983
      C    13      S                    1.026
      C    13      Px                   0.988
      C    13      Py                   0.989
      C    13      Pz                   1.004
      C    14      S                    1.032
      C    14      Px                   0.986
      C    14      Py                   0.983
      C    14      Pz                   1.009
      C    15      S                    1.026
      C    15      Px                   0.988
      C    15      Py                   0.988
      C    15      Pz                   0.998
      C    16      S                    1.029
      C    16      Px                   0.986
      C    16      Py                   0.985
      C    16      Pz                   1.003
      C    17      S                    1.026
      C    17      Px                   0.987
      C    17      Py                   0.987
      C    17      Pz                   1.001
      C    18      S                    1.027
      C    18      Px                   0.987
      C    18      Py                   0.987
      C    18      Pz                   0.999
      C    19      S                    1.026
      C    19      Px                   0.991
      C    19      Py                   0.986
      C    19      Pz                   1.005
      C    20      S                    1.038
      C    20      Px                   0.972
      C    20      Py                   0.987
      C    20      Pz                   0.983
      C    21      S                    1.026
      C    21      Px                   0.988
      C    21      Py                   0.989
      C    21      Pz                   1.004
      C    22      S                    1.038
      C    22      Px                   0.995
      C    22      Py                   0.964
      C    22      Pz                   0.983
      C    23      S                    1.025
      C    23      Px                   0.987
      C    23      Py                   0.988
      C    23      Pz                   1.001
      C    24      S                    1.028
      C    24      Px                   0.987
      C    24      Py                   0.985
      C    24      Pz                   0.999
      C    25      S                    1.025
      C    25      Px                   0.987
      C    25      Py                   0.988
      C    25      Pz                   1.001
      C    26      S                    1.025
      C    26      Px                   0.988
      C    26      Py                   0.988
      C    26      Pz                   0.997
      C    27      S                    1.026
      C    27      Px                   0.987
      C    27      Py                   0.989
      C    27      Pz                   0.999
      C    28      S                    1.027
      C    28      Px                   0.985
      C    28      Py                   0.987
      C    28      Pz                   0.999
      C    29      S                    1.027
      C    29      Px                   0.987
      C    29      Py                   0.987
      C    29      Pz                   1.001
      C    30      S                    1.032
      C    30      Px                   0.986
      C    30      Py                   0.984
      C    30      Pz                   1.008
      C    31      S                    1.025
      C    31      Px                   0.989
      C    31      Py                   0.988
      C    31      Pz                   0.999
      C    32      S                    1.027
      C    32      Px                   0.987
      C    32      Py                   0.985
      C    32      Pz                   0.999
  -------------------------------------------
                           Total:     128.996
  -------------------------------------------
 
     Atomic Populations (Mulliken)
     -----------------------------
Species          Ion     s       p       d       f      Total   Charge (e)
==========================================================================
  H               1     0.678   0.000   0.000   0.000   0.678     0.322
  C               1     1.025   2.982   0.000   0.000   4.007    -0.007
  C               2     1.026   2.973   0.000   0.000   3.999     0.001
  C               3     1.026   2.981   0.000   0.000   4.007    -0.007
  C               4     1.027   2.972   0.000   0.000   3.999     0.001
  C               5     1.028   2.973   0.000   0.000   4.001    -0.001
  C               6     1.028   2.974   0.000   0.000   4.002    -0.002
  C               7     1.027   2.974   0.000   0.000   4.001    -0.001
  C               8     1.028   2.974   0.000   0.000   4.002    -0.002
  C               9     1.026   2.982   0.000   0.000   4.008    -0.008
  C              10     1.031   2.979   0.000   0.000   4.010    -0.010
  C              11     1.176   3.120   0.000   0.000   4.296    -0.296
  C              12     1.038   2.942   0.000   0.000   3.980     0.020
  C              13     1.026   2.981   0.000   0.000   4.008    -0.008
  C              14     1.032   2.978   0.000   0.000   4.010    -0.010
  C              15     1.026   2.975   0.000   0.000   4.001    -0.001
  C              16     1.029   2.973   0.000   0.000   4.002    -0.002
  C              17     1.026   2.975   0.000   0.000   4.001    -0.001
  C              18     1.027   2.972   0.000   0.000   3.999     0.001
  C              19     1.026   2.982   0.000   0.000   4.008    -0.008
  C              20     1.038   2.942   0.000   0.000   3.980     0.020
  C              21     1.026   2.981   0.000   0.000   4.007    -0.007
  C              22     1.038   2.942   0.000   0.000   3.980     0.020
  C              23     1.025   2.976   0.000   0.000   4.000    -0.000
  C              24     1.028   2.971   0.000   0.000   3.999     0.001
  C              25     1.025   2.976   0.000   0.000   4.000    -0.000
  C              26     1.025   2.973   0.000   0.000   3.999     0.001
  C              27     1.026   2.975   0.000   0.000   4.001    -0.001
  C              28     1.027   2.971   0.000   0.000   3.999     0.001
  C              29     1.027   2.975   0.000   0.000   4.002    -0.002
  C              30     1.032   2.978   0.000   0.000   4.010    -0.010
  C              31     1.025   2.975   0.000   0.000   4.001    -0.001
  C              32     1.027   2.972   0.000   0.000   3.999     0.001
==========================================================================
 
                 Bond                   Population      Length (A)
======================================================================
               H 1 -- C 11                   0.77        1.12723
              C 1  -- C 12                   1.14        1.40858
              C 9  -- C 20                   1.14        1.40882
              C 3  -- C 12                   1.14        1.40887
              C 21 -- C 22                   1.14        1.40912
              C 13 -- C 22                   1.14        1.40914
              C 19 -- C 20                   1.14        1.40919
              C 7  -- C 10                   1.11        1.41536
              C 29 -- C 30                   1.11        1.41742
              C 5  -- C 14                   1.11        1.41817
              C 8  -- C 31                   1.08        1.42108
              C 23 -- C 26                   1.07        1.42193
              C 6  -- C 27                   1.08        1.42209
              C 2  -- C 25                   1.08        1.42237
              C 4  -- C 25                   1.08        1.42317
              C 15 -- C 16                   1.08        1.42318
              C 15 -- C 18                   1.07        1.42328
              C 2  -- C 31                   1.07        1.42348
              C 25 -- C 26                   1.07        1.42385
              C 23 -- C 32                   1.08        1.42386
              C 17 -- C 26                   1.07        1.42392
              C 23 -- C 24                   1.08        1.42432
              C 17 -- C 28                   1.08        1.42447
              C 17 -- C 18                   1.08        1.42451
              C 4  -- C 27                   1.07        1.42467
              C 31 -- C 32                   1.07        1.42511
              C 27 -- C 28                   1.07        1.42552
              C 15 -- C 24                   1.07        1.42584
              C 1  -- C 2                    1.06        1.42610
              C 3  -- C 4                    1.06        1.42651
              C 9  -- C 18                   1.06        1.42677
              C 21 -- C 32                   1.06        1.42703
              C 19 -- C 28                   1.06        1.42719
              C 13 -- C 24                   1.06        1.42744
              C 6  -- C 29                   1.05        1.42994
              C 8  -- C 29                   1.05        1.43039
              C 7  -- C 8                    1.05        1.43068
              C 7  -- C 16                   1.05        1.43085
              C 5  -- C 6                    1.05        1.43092
              C 5  -- C 16                   1.05        1.43168
              C 1  -- C 10                   1.03        1.43698
              C 9  -- C 10                   1.03        1.43739
              C 21 -- C 30                   1.03        1.43767
              C 3  -- C 14                   1.03        1.43794
              C 19 -- C 30                   1.03        1.43796
              C 13 -- C 14                   1.03        1.43810
              C 11 -- C 12                   0.82        1.50309
              C 11 -- C 20                   0.82        1.50321
              C 11 -- C 22                   0.82        1.50339
               H 1 -- C 20                  -0.17        2.07840
               H 1 -- C 22                  -0.17        2.08019
               H 1 -- C 12                  -0.17        2.08098
              C 2  -- C 12                  -0.18        2.44872
              C 18 -- C 20                  -0.18        2.44884
              C 4  -- C 12                  -0.18        2.44906
              C 20 -- C 28                  -0.18        2.44992
              C 22 -- C 32                  -0.18        2.45009
              C 22 -- C 24                  -0.18        2.45024
              C 1  -- C 3                   -0.17        2.45600
              C 13 -- C 21                  -0.17        2.45669
              C 9  -- C 19                  -0.17        2.45714
              C 18 -- C 24                  -0.18        2.46135
              C 4  -- C 28                  -0.18        2.46180
              C 2  -- C 32                  -0.18        2.46189
              C 1  -- C 25                  -0.18        2.46291
              C 26 -- C 32                  -0.18        2.46321
              C 17 -- C 23                  -0.18        2.46342
              C 3  -- C 25                  -0.18        2.46368
              C 2  -- C 26                  -0.18        2.46377
              C 4  -- C 26                  -0.18        2.46415
              C 24 -- C 26                  -0.18        2.46483
              C 10 -- C 16                  -0.18        2.46510
              C 23 -- C 25                  -0.18        2.46527
              C 6  -- C 30                  -0.18        2.46538
              C 21 -- C 23                  -0.18        2.46542
              C 26 -- C 28                  -0.18        2.46594
              C 13 -- C 23                  -0.18        2.46601
              C 17 -- C 19                  -0.18        2.46616
              C 17 -- C 25                  -0.18        2.46627
              C 8  -- C 32                  -0.18        2.46652
              C 2  -- C 8                   -0.18        2.46654
              C 9  -- C 17                  -0.18        2.46655
              C 2  -- C 4                   -0.18        2.46672
              C 8  -- C 30                  -0.18        2.46675
              C 9  -- C 15                  -0.18        2.46682
              C 8  -- C 10                  -0.18        2.46686
              C 18 -- C 26                  -0.18        2.46701
              C 1  -- C 31                  -0.18        2.46731
              C 3  -- C 27                  -0.18        2.46748
              C 6  -- C 28                  -0.18        2.46756
              C 18 -- C 28                  -0.18        2.46779
              C 7  -- C 31                  -0.18        2.46785
              C 24 -- C 32                  -0.18        2.46785
              C 16 -- C 18                  -0.18        2.46786
              C 6  -- C 14                  -0.18        2.46787
              C 25 -- C 31                  -0.18        2.46818
              C 5  -- C 27                  -0.18        2.46892
              C 14 -- C 16                  -0.18        2.46931
              C 1  -- C 7                   -0.18        2.46956
              C 15 -- C 17                  -0.17        2.46961
              C 19 -- C 27                  -0.18        2.46971
              C 21 -- C 31                  -0.18        2.46974
              C 4  -- C 6                   -0.18        2.47012
              C 29 -- C 31                  -0.18        2.47021
              C 23 -- C 31                  -0.17        2.47029
              C 16 -- C 24                  -0.18        2.47031
              C 13 -- C 15                  -0.18        2.47033
              C 5  -- C 15                  -0.18        2.47099
              C 7  -- C 9                   -0.18        2.47111
              C 7  -- C 15                  -0.18        2.47120
              C 25 -- C 27                  -0.17        2.47142
              C 27 -- C 29                  -0.17        2.47147
              C 17 -- C 27                  -0.17        2.47167
              C 15 -- C 23                  -0.17        2.47190
              C 21 -- C 29                  -0.18        2.47226
              C 19 -- C 29                  -0.18        2.47338
              C 5  -- C 13                  -0.17        2.47364
              C 3  -- C 5                   -0.17        2.47403
              C 10 -- C 12                  -0.18        2.47413
              C 10 -- C 20                  -0.18        2.47472
              C 22 -- C 30                  -0.18        2.47512
              C 12 -- C 14                  -0.18        2.47553
              C 14 -- C 22                  -0.18        2.47570
              C 20 -- C 30                  -0.18        2.47572
              C 2  -- C 10                  -0.17        2.47580
              C 8  -- C 16                  -0.18        2.47582
              C 4  -- C 14                  -0.17        2.47698
              C 6  -- C 8                   -0.18        2.47715
              C 30 -- C 32                  -0.17        2.47719
              C 6  -- C 16                  -0.18        2.47729
              C 10 -- C 18                  -0.17        2.47739
              C 28 -- C 30                  -0.17        2.47767
              C 5  -- C 29                  -0.17        2.47788
              C 14 -- C 24                  -0.17        2.47796
              C 7  -- C 29                  -0.17        2.47885
              C 5  -- C 7                   -0.17        2.48089
              C 1  -- C 9                   -0.17        2.48865
              C 19 -- C 21                  -0.17        2.48940
              C 3  -- C 13                  -0.17        2.48943
              C 9  -- C 11                  -0.17        2.51081
              C 1  -- C 11                  -0.17        2.51092
              C 11 -- C 19                  -0.17        2.51115
              C 3  -- C 11                  -0.17        2.51132
              C 11 -- C 13                  -0.17        2.51168
              C 11 -- C 21                  -0.17        2.51168
              C 12 -- C 20                  -0.14        2.53077
              C 12 -- C 22                  -0.14        2.53097
              C 20 -- C 22                  -0.14        2.53104
              C 12 -- C 25                  -0.11        2.82423
              C 17 -- C 20                  -0.11        2.82704
              C 22 -- C 23                  -0.11        2.82706
              C 17 -- C 24                  -0.10        2.84389
              C 1  -- C 4                   -0.11        2.84470
              C 2  -- C 3                   -0.11        2.84480
              C 25 -- C 32                  -0.10        2.84481
              C 4  -- C 17                  -0.10        2.84496
              C 2  -- C 23                  -0.10        2.84534
              C 18 -- C 23                  -0.10        2.84549
              C 18 -- C 19                  -0.10        2.84552
              C 21 -- C 24                  -0.10        2.84594
              C 13 -- C 32                  -0.10        2.84607
              C 9  -- C 28                  -0.10        2.84657
              C 25 -- C 28                  -0.10        2.84669
              C 14 -- C 27                  -0.10        2.84938
              C 10 -- C 31                  -0.10        2.85005
              C 26 -- C 31                  -0.10        2.85034
              C 10 -- C 15                  -0.10        2.85034
              C 2  -- C 7                   -0.10        2.85039
              C 9  -- C 16                  -0.10        2.85098
              C 6  -- C 19                  -0.10        2.85164
              C 8  -- C 21                  -0.10        2.85190
              C 1  -- C 8                   -0.10        2.85194
              C 27 -- C 30                  -0.10        2.85216
              C 30 -- C 31                  -0.10        2.85244
              C 14 -- C 15                  -0.10        2.85282
              C 29 -- C 32                  -0.10        2.85310
              C 26 -- C 27                  -0.10        2.85382
              C 15 -- C 26                  -0.10        2.85428
              C 7  -- C 18                  -0.10        2.85430
              C 3  -- C 6                   -0.10        2.85463
              C 5  -- C 24                  -0.10        2.85480
              C 4  -- C 5                   -0.10        2.85500
              C 28 -- C 29                  -0.10        2.85511
              C 13 -- C 16                  -0.10        2.85553
              C 16 -- C 29                  -0.09        2.85951
              C 5  -- C 8                   -0.09        2.86155
              C 6  -- C 7                   -0.09        2.86303
              C 9  -- C 12                  -0.08        2.87779
              C 1  -- C 20                  -0.08        2.87811
              C 19 -- C 22                  -0.08        2.87830
              C 3  -- C 22                  -0.08        2.87847
              C 12 -- C 13                  -0.08        2.87860
              C 20 -- C 21                  -0.08        2.87894
              C 10 -- C 11                  -0.08        2.88750
              C 11 -- C 30                  -0.08        2.88854
              C 11 -- C 14                  -0.08        2.88906
               H 1 -- C 19                  -0.02        2.92379
               H 1 -- C 9                   -0.02        2.92438
               H 1 -- C 21                  -0.02        2.92569
               H 1 -- C 1                   -0.02        2.92675
               H 1 -- C 13                  -0.02        2.92812
               H 1 -- C 3                   -0.02        2.92865
======================================================================
 

Writing analysis data to data.castep_bin
 
 A BibTeX formatted list of references used in this run has been written to 
 data.bib
 
Initialisation time =      1.99 s
Calculation time    =    156.83 s
Finalisation time   =      0.16 s
Total time          =    158.99 s
Peak Memory Use     = 996580 kB
  
Overall parallel efficiency rating: Poor (49%)                                  
  
Data was distributed by:-
G-vector (16-way); efficiency rating: Mediocre (52%)                            
k-point (8-way); efficiency rating: Very good (88%)                             
  
Parallel notes:
1) Calculation only took 158.9 s, so efficiency estimates may be inaccurate.    
