 argument  1 = nwchem.nwi
                                         
                                         


             Northwest Computational Chemistry Package (NWChem) 7.0.2
             --------------------------------------------------------


                    Environmental Molecular Sciences Laboratory
                       Pacific Northwest National Laboratory
                                Richland, WA 99352

                              Copyright (c) 1994-2020
                       Pacific Northwest National Laboratory
                            Battelle Memorial Institute

             NWChem is an open-source computational chemistry package
                        distributed under the terms of the
                      Educational Community License (ECL) 2.0
             A copy of the license is included with this distribution
                              in the LICENSE.TXT file

                                  ACKNOWLEDGMENT
                                  --------------

            This software and its documentation were developed at the
            EMSL at Pacific Northwest National Laboratory, a multiprogram
            national laboratory, operated for the U.S. Department of Energy
            by Battelle under Contract Number DE-AC05-76RL01830. Support
            for this work was provided by the Department of Energy Office
            of Biological and Environmental Research, Office of Basic
            Energy Sciences, and the Office of Advanced Scientific Computing.


           Job information
           ---------------

    hostname        = nid001263
    program         = /work/y07/shared/apps/core/nwchem/7.0.2/bin/LINUX64/nwchem
    date            = Mon Oct 31 16:08:11 2022

    compiled        = Tue_Oct_05_10:02:09_2021
    source          = /work/y07/shared/apps/core/nwchem/7.0.2
    nwchem branch   = 7.0.2
    nwchem revision = b9985dfa
    ga revision     = 5.7.2
    use scalapack   = F
    input           = nwchem.nwi
    prefix          = nwchem.
    data base       = /mnt/lustre/a2fs-work3/work/e89/e89/louie/W037/J00194/1/calc/nwchem/nwchem.db
    status          = startup
    nproc           =      128
    time left       =     -1s



           Memory information
           ------------------

    heap     =   13107196 doubles =    100.0 Mbytes
    stack    =   13107201 doubles =    100.0 Mbytes
    global   =   26214400 doubles =    200.0 Mbytes (distinct from heap & stack)
    total    =   52428797 doubles =    400.0 Mbytes
    verify   = yes
    hardfail = no 


           Directory information
           ---------------------

  0 permanent = /mnt/lustre/a2fs-work3/work/e89/e89/louie/W037/J00194/1/calc/nwchem
  0 scratch   = /mnt/lustre/a2fs-work3/work/e89/e89/louie/W037/J00194/1/calc/nwchem




                                NWChem Input Module
                                -------------------


                                      nwchem
                                      ------

 Scaling coordinates for geometry "geometry" by  1.889725989
 (inverse scale =  0.529177249)



                             Geometry "geometry" -> ""
                             -------------------------

 Output coordinates in angstroms (scale by  1.889725989 to convert to a.u.)

  No.       Tag          Charge          X              Y              Z
 ---- ---------------- ---------- -------------- -------------- --------------
    1 O                    8.0000     1.22350280     2.03404310    -0.05603946
    2 N                    7.0000    -0.70663389     0.82679949     0.00009829
    3 N                    7.0000     1.40228212    -0.24203724    -0.00179520
    4 N                    7.0000     1.54395281    -2.54807904     0.03465533
    5 C                    6.0000    -1.32449237    -0.38861612     0.01761353
    6 C                    6.0000    -0.62461472    -1.54415480     0.02675240
    7 C                    6.0000     0.68018028     0.91147252    -0.02108444
    8 C                    6.0000    -1.53267306     2.04225634    -0.01273048
    9 C                    6.0000     0.79680082    -1.45119851     0.01973598
   10 H                    1.0000    -2.40630517    -0.36318795     0.02477461
   11 H                    1.0000    -1.11890898    -2.50435432     0.04203281
   12 H                    1.0000    -2.20652428     2.02730297     0.84356372
   13 H                    1.0000    -2.11074700     2.08518887    -0.93620493
   14 H                    1.0000    -0.88599664     2.90996950     0.05008921
   15 H                    1.0000     1.08528482    -3.44649052     0.04498176
   16 O                    8.0000     4.18383086    -2.33034072    -0.00724022
   17 N                    7.0000     6.99661380     2.23606192    -0.00616621
   18 N                    7.0000     4.06516663    -0.04810799    -0.00789984
   19 N                    7.0000     8.06723084     0.26659503     0.00162576
   20 N                    7.0000     6.16351031    -1.24835735     0.00046460
   21 N                    7.0000     3.95594676     2.28847114    -0.01063648
   22 C                    6.0000     6.08214025     1.18705487    -0.00476191
   23 C                    6.0000     4.67803456     1.17176372    -0.00813423
   24 C                    6.0000     6.73072513    -0.04058457    -0.00035062
   25 C                    6.0000     8.16339297     1.63996061    -0.00233783
   26 C                    6.0000     4.81518068    -1.23326861    -0.00463734
   27 H                    1.0000     8.83713136    -0.38975177     0.00320966
   28 H                    1.0000     9.12131576     2.13579204    -0.00224787
   29 H                    1.0000     4.43747347     3.17497448    -0.01517345
   30 H                    1.0000     2.93005069     2.25303341    -0.02461698
   31 H                    1.0000     2.96245919    -0.12319120    -0.00770092
   32 H                    1.0000     2.57830102    -2.48236279     0.02108545

      Atomic Mass 
      ----------- 

      O                 15.994910
      N                 14.003070
      C                 12.000000
      H                  1.007825


 Effective nuclear repulsion energy (a.u.)    1536.9334842893

            Nuclear Dipole moment (a.u.) 
            ----------------------------
        X                 Y               Z
 ---------------- ---------------- ----------------
   864.9025205532    51.7672976849    -0.6229108520


            XYZ format geometry
            -------------------
    32
 geometry
 O                     1.22350280     2.03404310    -0.05603946
 N                    -0.70663389     0.82679949     0.00009829
 N                     1.40228212    -0.24203724    -0.00179520
 N                     1.54395281    -2.54807904     0.03465533
 C                    -1.32449237    -0.38861612     0.01761353
 C                    -0.62461472    -1.54415480     0.02675240
 C                     0.68018028     0.91147252    -0.02108444
 C                    -1.53267306     2.04225634    -0.01273048
 C                     0.79680082    -1.45119851     0.01973598
 H                    -2.40630517    -0.36318795     0.02477461
 H                    -1.11890898    -2.50435432     0.04203281
 H                    -2.20652428     2.02730297     0.84356372
 H                    -2.11074700     2.08518887    -0.93620493
 H                    -0.88599664     2.90996950     0.05008921
 H                     1.08528482    -3.44649052     0.04498176
 O                     4.18383086    -2.33034072    -0.00724022
 N                     6.99661380     2.23606192    -0.00616621
 N                     4.06516663    -0.04810799    -0.00789984
 N                     8.06723084     0.26659503     0.00162576
 N                     6.16351031    -1.24835735     0.00046460
 N                     3.95594676     2.28847114    -0.01063648
 C                     6.08214025     1.18705487    -0.00476191
 C                     4.67803456     1.17176372    -0.00813423
 C                     6.73072513    -0.04058457    -0.00035062
 C                     8.16339297     1.63996061    -0.00233783
 C                     4.81518068    -1.23326861    -0.00463734
 H                     8.83713136    -0.38975177     0.00320966
 H                     9.12131576     2.13579204    -0.00224787
 H                     4.43747347     3.17497448    -0.01517345
 H                     2.93005069     2.25303341    -0.02461698
 H                     2.96245919    -0.12319120    -0.00770092
 H                     2.57830102    -2.48236279     0.02108545

 ==============================================================================
                                internuclear distances
 ------------------------------------------------------------------------------
       center one      |      center two      | atomic units |  angstroms
 ------------------------------------------------------------------------------
    5 C                |   2 N                |     2.57675  |     1.36356
    6 C                |   5 C                |     2.55301  |     1.35099
    7 C                |   1 O                |     2.35768  |     1.24763
    7 C                |   2 N                |     2.62588  |     1.38956
    7 C                |   3 N                |     2.57196  |     1.36102
    8 C                |   2 N                |     2.77722  |     1.46964
    9 C                |   3 N                |     2.55577  |     1.35246
    9 C                |   4 N                |     2.50815  |     1.32725
    9 C                |   6 C                |     2.69186  |     1.42447
   10 H                |   5 C                |     2.04494  |     1.08214
   11 H                |   6 C                |     2.04103  |     1.08007
   12 H                |   8 C                |     2.05931  |     1.08974
   13 H                |   8 C                |     2.06042  |     1.09033
   14 H                |   8 C                |     2.04847  |     1.08400
   15 H                |   4 N                |     1.90631  |     1.00877
   22 C                |  17 N                |     2.62983  |     1.39165
   23 C                |  18 N                |     2.57980  |     1.36517
   23 C                |  21 N                |     2.51302  |     1.32983
   23 C                |  22 C                |     2.65354  |     1.40419
   24 C                |  19 N                |     2.59148  |     1.37135
   24 C                |  20 N                |     2.52153  |     1.33433
   24 C                |  22 C                |     2.62378  |     1.38845
   25 C                |  17 N                |     2.47599  |     1.31024
   25 C                |  19 N                |     2.60165  |     1.37673
   26 C                |  16 O                |     2.39196  |     1.26577
   26 C                |  18 N                |     2.65043  |     1.40255
   26 C                |  20 N                |     2.54815  |     1.34842
   27 H                |  19 N                |     1.91184  |     1.01170
   28 H                |  25 C                |     2.03833  |     1.07864
   29 H                |  21 N                |     1.90645  |     1.00885
   30 H                |  21 N                |     1.94000  |     1.02660
   31 H                |  18 N                |     2.08864  |     1.10526
   32 H                |   4 N                |     1.95874  |     1.03652
 ------------------------------------------------------------------------------
                         number of included internuclear distances:         33
 ==============================================================================



 ==============================================================================
                                 internuclear angles
 ------------------------------------------------------------------------------
        center 1       |       center 2       |       center 3       |  degrees
 ------------------------------------------------------------------------------
    5 C                |   2 N                |   7 C                |   120.45
    5 C                |   2 N                |   8 C                |   118.86
    7 C                |   2 N                |   8 C                |   120.69
    7 C                |   3 N                |   9 C                |   121.36
    9 C                |   4 N                |  15 H                |   118.70
    9 C                |   4 N                |  32 H                |   120.61
   15 H                |   4 N                |  32 H                |   120.69
    2 N                |   5 C                |   6 C                |   121.85
    2 N                |   5 C                |  10 H                |   115.60
    6 C                |   5 C                |  10 H                |   122.54
    5 C                |   6 C                |   9 C                |   117.46
    5 C                |   6 C                |  11 H                |   121.56
    9 C                |   6 C                |  11 H                |   120.98
    1 O                |   7 C                |   2 N                |   119.33
    1 O                |   7 C                |   3 N                |   122.14
    2 N                |   7 C                |   3 N                |   118.53
    2 N                |   8 C                |  12 H                |   109.23
    2 N                |   8 C                |  13 H                |   109.75
    2 N                |   8 C                |  14 H                |   109.04
   12 H                |   8 C                |  13 H                |   109.77
   12 H                |   8 C                |  14 H                |   109.53
   13 H                |   8 C                |  14 H                |   109.50
    3 N                |   9 C                |   4 N                |   119.15
    3 N                |   9 C                |   6 C                |   120.34
    4 N                |   9 C                |   6 C                |   120.51
   22 C                |  17 N                |  25 C                |   104.02
   23 C                |  18 N                |  26 C                |   121.00
   23 C                |  18 N                |  31 H                |   120.57
   26 C                |  18 N                |  31 H                |   118.43
   24 C                |  19 N                |  25 C                |   106.95
   24 C                |  19 N                |  27 H                |   126.61
   25 C                |  19 N                |  27 H                |   126.44
   24 C                |  20 N                |  26 C                |   114.51
   23 C                |  21 N                |  29 H                |   118.60
   23 C                |  21 N                |  30 H                |   120.91
   29 H                |  21 N                |  30 H                |   120.48
   17 N                |  22 C                |  23 C                |   131.70
   17 N                |  22 C                |  24 C                |   111.07
   23 C                |  22 C                |  24 C                |   117.22
   18 N                |  23 C                |  21 N                |   120.44
   18 N                |  23 C                |  22 C                |   117.30
   21 N                |  23 C                |  22 C                |   122.26
   19 N                |  24 C                |  20 N                |   128.10
   19 N                |  24 C                |  22 C                |   104.90
   20 N                |  24 C                |  22 C                |   127.00
   17 N                |  25 C                |  19 N                |   113.06
   17 N                |  25 C                |  28 H                |   125.57
   19 N                |  25 C                |  28 H                |   121.37
   16 O                |  26 C                |  18 N                |   117.75
   16 O                |  26 C                |  20 N                |   119.28
   18 N                |  26 C                |  20 N                |   122.97
 ------------------------------------------------------------------------------
                            number of included internuclear angles:         51
 ==============================================================================



  library name resolved from: environment
  library file name is: </work/y07/shared/apps/core/nwchem/7.0.2/libraries/>
  

                                 NWChem DFT Module
                                 -----------------


                                      nwchem




 Summary of "ao basis" -> "ao basis" (cartesian)
 ------------------------------------------------------------------------------
       Tag                 Description            Shells   Functions and Types
 ---------------- ------------------------------  ------  ---------------------
 O                         6-311++G**               10       23   5s4p1d
 N                         6-311++G**               10       23   5s4p1d
 C                         6-311++G**               10       23   5s4p1d
 H                         6-311++G**                5        7   4s1p



 solvent parameters
 solvname_short: h2o     
 solvname_long:  water                              
 dielec:       78.4000
 dielecinf:     1.7769
 aqueous SMD model solvent descriptors
 dielec:       78.4000
 sola:          0.8200

          ---------------
          -cosmo- solvent
          ---------------
 Cosmo: York-Karplus, doi: 10.1021/jp992097l
 dielectric constant -eps-     =  78.40
 screen = (eps-1)/(eps    )    =   0.98724
 surface charge correction     = lagrangian
 -lineq- algorithm             =   0
 -bem- low  level              =   3
 -bem- from -octahedral-
 gaussian surface charge width =   0.98000
 degree of switching           =   1.00000
 switching function tolerance  =   0.00010
 atomic radii = 
 --------------
    1  8.000  1.520
    2  7.000  1.890
    3  7.000  1.890
    4  7.000  1.890
    5  6.000  1.850
    6  6.000  1.850
    7  6.000  1.850
    8  6.000  1.850
    9  6.000  1.850
   10  1.000  1.200
   11  1.000  1.200
   12  1.000  1.200
   13  1.000  1.200
   14  1.000  1.200
   15  1.000  1.200
   16  8.000  1.520
   17  7.000  1.890
   18  7.000  1.890
   19  7.000  1.890
   20  7.000  1.890
   21  7.000  1.890
   22  6.000  1.850
   23  6.000  1.850
   24  6.000  1.850
   25  6.000  1.850
   26  6.000  1.850
   27  1.000  1.200
   28  1.000  1.200
   29  1.000  1.200
   30  1.000  1.200
   31  1.000  1.200
   32  1.000  1.200

 solvent accessible surface
 --------------------------

 ---------- ATOMIC COORDINATES (A.U.) ------------ VDWR(ANG.) --
     1    2.31208503    3.84378411   -0.10589922     1.520
     2   -1.33534443    1.56242449    0.00018574     1.890
     3    2.64992897   -0.45738406   -0.00339244     1.890
     4    2.91764776   -4.81517119    0.06548908     1.890
     5   -2.50292766   -0.73437799    0.03328474     1.850
     6   -1.18035066   -2.91802945    0.05055470     1.850
     7    1.28535436    1.72243330   -0.03984381     1.850
     8   -2.89633210    3.85930488   -0.02405711     1.850
     9    1.50573521   -2.74236753    0.03729559     1.850
    10   -4.54725741   -0.68632571    0.04681722     1.200
    11   -2.11443137   -4.73254344    0.07943049     1.200
    12   -4.16972628    3.83104711    1.59410428     1.200
    13   -3.98873345    3.94043559   -1.76917079     1.200
    14   -1.67429087    5.49904500    0.09465488     1.200
    15    2.05089094   -6.51292271    0.08500320     1.200
    16    7.90629391   -4.40370541   -0.01368203     1.520
    17   13.22168292    4.22554433   -0.01165244     1.890
    18    7.68205103   -0.09091093   -0.01492854     1.890
    19   15.24485577    0.50379156    0.00307225     1.890
    20   11.64734562   -2.35905333    0.00087796     1.890
    21    7.47565541    4.32458339   -0.02010003     1.890
    22   11.49357850    2.24320844   -0.00899870     1.850
    23    8.84020347    2.21431236   -0.01537147     1.850
    24   12.71922619   -0.07669372   -0.00066257     1.850
    25   15.42657585    3.09907618   -0.00441786     1.850
    26    9.09937208   -2.33053975   -0.00876331     1.850
    27   16.69975679   -0.73652405    0.00606539     1.200
    28   17.23678745    4.03606173   -0.00424785     1.200
    29    8.38560894    5.99983179   -0.02867366     1.200
    30    5.53699294    4.25761579   -0.04651935     1.200
    31    5.59823613   -0.23279761   -0.01455263     1.200
    32    4.87228245   -4.69098547    0.03984572     1.200
 number of segments per atom =        128
 number of   points per atom =        128
 atom (   nspa,  nppa )
 ----------------------
    1 (     58,     0 )       0
    2 (     26,     0 )       0
    3 (     40,     0 )       0
    4 (     68,     0 )       0
    5 (     40,     0 )       0
    6 (     49,     0 )       0
    7 (     35,     0 )       0
    8 (     59,     0 )       0
    9 (     25,     0 )       0
   10 (     49,     0 )       0
   11 (     54,     0 )       0
   12 (     54,     0 )       0
   13 (     54,     0 )       0
   14 (     44,     0 )       0
   15 (     46,     0 )       0
   16 (     61,     0 )       0
   17 (     58,     0 )       0
   18 (     40,     0 )       0
   19 (     52,     0 )       0
   20 (     58,     0 )       0
   21 (     69,     0 )       0
   22 (     24,     0 )       0
   23 (     25,     0 )       0
   24 (     24,     0 )       0
   25 (     48,     0 )       0
   26 (     34,     0 )       0
   27 (     48,     0 )       0
   28 (     54,     0 )       0
   29 (     40,     0 )       0
   30 (     16,     0 )       0
   31 (      0,     0 )       0
   32 (     13,     0 )       0
 number of -cosmo- surface points =     1365
 molecular surface =    284.534 angstrom**2
 molecular volume  =    163.446 angstrom**3
 ...... end of -cosmo- initialization ......


 G(SMD-CDS) energy (kcal/mol)  =     3.360
 SMD-CDS SASA (angstrom**2)    =   315.587

  Caching 1-el integrals 

            General Information
            -------------------
          SCF calculation type: DFT
          Wavefunction type:  closed shell.
          No. of atoms     :    32
          No. of electrons :   144
           Alpha electrons :    72
            Beta electrons :    72
          Charge           :     0
          Spin multiplicity:     1
          Use of symmetry is: off; symmetry adaption is: off
          Maximum number of iterations: ***
          This is a Direct SCF calculation.
          AO basis - number of functions:   544
                     number of shells:   260
          Convergence on energy requested:  1.00D-08
          Convergence on density requested:  1.00D-07
          Convergence on gradient requested:  1.00D-06

              XC Information
              --------------
                         B3LYP Method XC Potential
                     Hartree-Fock (Exact) Exchange  0.200          
                        Slater Exchange Functional  0.800 local    
                    Becke 1988 Exchange Functional  0.720 non-local
              Lee-Yang-Parr Correlation Functional  0.810          
                  VWN I RPA Correlation Functional  0.190 local    

             Grid Information
             ----------------
          Grid used for XC integration:  fine      
          Radial quadrature: Mura-Knowles        
          Angular quadrature: Lebedev. 
          Tag              B.-S. Rad. Rad. Pts. Rad. Cut. Ang. Pts.
          ---              ---------- --------- --------- ---------
          O                   0.60       70          21.0       590
          N                   0.65       70          25.0       590
          C                   0.70       70          25.0       590
          H                   0.35       60          26.0       590
          Grid pruning is: on 
          Number of quadrature shells:  2120
          Spatial weights used:  Erf1

          Convergence Information
          -----------------------
          Convergence aids based upon iterative change in 
          total energy or number of iterations. 
          Levelshifting, if invoked, occurs when the 
          HOMO/LUMO gap drops below (HL_TOL):  1.00D-02
          DIIS, if invoked, will attempt to extrapolate 
          using up to (NFOCK): 10 stored Fock matrices.

                    Damping( 0%)  Levelshifting(0.5)       DIIS
                  --------------- ------------------- ---------------
          dE  on:    start            ASAP                start   
          dE off:    2 iters        *** iters           *** iters 


      Screening Tolerance Information
      -------------------------------
          Density screening/tol_rho:  1.00D-16
          AO Gaussian exp screening on grid/accAOfunc:  18
          CD Gaussian exp screening on grid/accCDfunc:  20
          XC Gaussian exp screening on grid/accXCfunc:  20
          Schwarz screening/accCoul:  1.00D-16


 WARNING : Found     4 linear dependencies 
 S eigenvalue threshold:     1.00000E-05
 Smallest S eigenvalue :     2.48774E-07
 Largest  S eigenvalue :     6.20084E-06


 !! The overlap matrix has   4 vectors deemed linearly dependent with
    eigenvalues:
 2.49D-07 1.60D-06 3.18D-06 6.20D-06


      Superposition of Atomic Density Guess
      -------------------------------------

 Sum of atomic energies:        -966.70831230

      Non-variational initial energy
      ------------------------------

 Total energy =    -980.309794
 1-e energy   =   -4368.335990
 2-e energy   =    1851.092712
 HOMO         =      -0.223165
 LUMO         =      -0.023935

   Time after variat. SCF:      5.9
   Time prior to 1st pass:      5.9
 Grid integrated density:     143.982862036722
 Requested integration accuracy:   0.10E-06

           Memory utilization after 1st SCF pass: 
           Heap Space remaining (MW):       13.09            13086628
          Stack Space remaining (MW):       13.10            13103036

   convergence    iter        energy       DeltaE   RMS-Dens  Diis-err    time
 ---------------- ----- ----------------- --------- --------- ---------  ------
     COSMO gas phase
 d= 0,ls=0.0,diis     1   -976.8685783914 -2.51D+03  4.32D+01  7.57D+00    15.1
 Grid integrated density:     143.999643345015
 Requested integration accuracy:   0.10E-06
 d= 0,ls=0.5,diis     2   -972.3745338492  4.49D+00  2.39D-01  2.83D+01    24.5
 Grid integrated density:     143.999636247007
 Requested integration accuracy:   0.10E-06
 d= 0,ls=0.5,diis     3   -974.0636291955 -1.69D+00  1.54D-01  1.25D+01    33.9
 Grid integrated density:     143.999632181576
 Requested integration accuracy:   0.10E-06
 d= 0,ls=0.5,diis     4   -974.4524784491 -3.89D-01  8.63D-02  9.25D+00    43.2
 Grid integrated density:     143.999630909413
 Requested integration accuracy:   0.10E-06
 d= 0,ls=0.5,diis     5   -974.5500403075 -9.76D-02  2.61D-02  8.37D+00    52.3
 Grid integrated density:     143.999630379895
 Requested integration accuracy:   0.10E-06
 d= 0,ls=0.5,diis     6   -974.6093297333 -5.93D-02  3.65D-03  7.94D+00    61.5
 Grid integrated density:     143.999630252760
 Requested integration accuracy:   0.10E-06
 d= 0,ls=0.5,diis     7   -974.6448107810 -3.55D-02  1.80D-02  7.76D+00    70.8
 Grid integrated density:     143.999629831917
 Requested integration accuracy:   0.10E-06
 d= 0,ls=0.5,diis     8   -974.7020240687 -5.72D-02  2.59D-02  7.39D+00    80.1
 Grid integrated density:     143.999629299980
 Requested integration accuracy:   0.10E-06
 d= 0,ls=0.5,diis     9   -974.7691281237 -6.71D-02  3.19D-02  6.88D+00    89.6
 Grid integrated density:     143.999628931297
 Requested integration accuracy:   0.10E-06
 d= 0,ls=0.5,diis    10   -974.7966196308 -2.75D-02  3.26D-03  6.70D+00    98.8
 Grid integrated density:     143.999628883355
 Requested integration accuracy:   0.10E-06
 d= 0,ls=0.5,diis    11   -974.8135567335 -1.69D-02  4.33D+01  6.66D+00   108.2
 d= 0,ls=0.5,diis    12   -976.7229835502 -1.91D+00  5.26D-03  3.82D+00   117.2
 d= 0,ls=0.5,diis    13   -976.9766150461 -2.54D-01  2.64D-03  1.04D+00   126.4
 d= 0,ls=0.5,diis    14   -977.0820462333 -1.05D-01  1.54D-03  2.67D-01   135.6
 d= 0,ls=0.5,diis    15   -977.1136213831 -3.16D-02  5.93D-04  3.70D-02   144.9
 d= 0,ls=0.5,diis    16   -977.1196935663 -6.07D-03  2.64D-04  6.04D-03   153.9
 d= 0,ls=0.5,diis    17   -977.1210895451 -1.40D-03  1.82D-04  1.67D-03   163.0
 d= 0,ls=0.5,diis    18   -977.1215856293 -4.96D-04  1.20D-04  8.37D-04   172.2
 d= 0,ls=0.5,diis    19   -977.1217983633 -2.13D-04  7.37D-05  4.51D-04   181.4
 d= 0,ls=0.5,diis    20   -977.1219043419 -1.06D-04  4.91D-05  2.29D-04   190.6
 d= 0,ls=0.5,diis    21   -977.1219540717 -4.97D-05  3.10D-05  1.23D-04   199.7
 d= 0,ls=0.5,diis    22   -977.1219782350 -2.42D-05  1.74D-05  6.30D-05   208.9
 d= 0,ls=0.5,diis    23   -977.1219904803 -1.22D-05  1.10D-05  2.94D-05   218.1
 d= 0,ls=0.5,diis    24   -977.1219961788 -5.70D-06  6.92D-06  1.37D-05   227.3
 d= 0,ls=0.5,diis    25   -977.1219988652 -2.69D-06  4.48D-06  6.54D-06   236.4
 d= 0,ls=0.5,diis    26   -977.1220001709 -1.31D-06  3.02D-06  3.28D-06   245.5
 d= 0,ls=0.5,diis    27   -977.1220008191 -6.48D-07  2.13D-06  1.63D-06   254.6
 d= 0,ls=0.5,diis    28   -977.1220011519 -3.33D-07  1.50D-06  8.07D-07   264.0
 d= 0,ls=0.5,diis    29   -977.1220013211 -1.69D-07  1.03D-06  4.09D-07   273.1
 d= 0,ls=0.5,diis    30   -977.1220014105 -8.94D-08  7.33D-07  2.04D-07   282.5
 d= 0,ls=0.5,diis    31   -977.1220014582 -4.77D-08  5.28D-07  1.00D-07   291.6
 d= 0,ls=0.5,diis    32   -977.1220014834 -2.51D-08  3.85D-07  5.26D-08   300.8
 d= 0,ls=0.5,diis    33   -977.1220014971 -1.37D-08  2.91D-07  2.80D-08   309.9
 d= 0,ls=0.5,diis    34   -977.1220015049 -7.82D-09  2.22D-07  1.58D-08   318.9
 d= 0,ls=0.5,diis    35   -977.1220015095 -4.61D-09  1.71D-07  9.42D-09   327.9
 d= 0,ls=0.5,diis    36   -977.1220015122 -2.75D-09  1.31D-07  5.98D-09   337.1
 d= 0,ls=0.5,diis    37   -977.1220015139 -1.68D-09  1.02D-07  4.07D-09   346.1
 d= 0,ls=0.5,diis    38   -977.1220015149 -1.01D-09  7.98D-08  3.01D-09   355.1

+ XDM: a1       =      0.62240
       a2 (ang) =      1.70680
       onlyc?   =            F

+ XDM: volume and moments
  All results in atomic units.
  i V alpha M1 M2 M3
  1      25.9053957548       5.4121902500       5.1622465138      42.6703726346     469.6849319882
  2      30.8286864966       7.4232035847       4.3958040791      46.9308806637     694.8436849825
  3      30.8286864966       7.4232035847       4.3958040791      46.9308806637     694.8436849825
  4      30.8286864966       7.4232035847       4.3958040791      46.9308806637     694.8436849825
  5      36.3494689014      11.7547160903       3.9716083900      56.7124130335    1153.5749990343
  6      36.3494689014      11.7547160903       3.9716083900      56.7124130335    1153.5749990343
  7      36.3494689014      11.7547160903       3.9716083900      56.7124130335    1153.5749990343
  8      36.3494689014      11.7547160903       3.9716083900      56.7124130335    1153.5749990343
  9      36.3494689014      11.7547160903       3.9716083900      56.7124130335    1153.5749990343
 10       8.6915393208       4.2538921732       1.6335161471      15.3666770017     287.0316310533
 11       8.6915393208       4.2538921732       1.6335161471      15.3666770017     287.0316310533
 12       8.6915393208       4.2538921732       1.6335161471      15.3666770017     287.0316310533
 13       8.6915393208       4.2538921732       1.6335161471      15.3666770017     287.0316310533
 14       8.6915393208       4.2538921732       1.6335161471      15.3666770017     287.0316310533
 15       8.6915393208       4.2538921732       1.6335161471      15.3666770017     287.0316310533
 16      25.9053957548       5.4121902500       5.1622465138      42.6703726346     469.6849319882
 17      30.8286864966       7.4232035847       4.3958040791      46.9308806637     694.8436849825
 18      30.8286864966       7.4232035847       4.3958040791      46.9308806637     694.8436849825
 19      30.8286864966       7.4232035847       4.3958040791      46.9308806637     694.8436849825
 20      30.8286864966       7.4232035847       4.3958040791      46.9308806637     694.8436849825
 21      30.8286864966       7.4232035847       4.3958040791      46.9308806637     694.8436849825
 22      36.3494689014      11.7547160903       3.9716083900      56.7124130335    1153.5749990343
 23      36.3494689014      11.7547160903       3.9716083900      56.7124130335    1153.5749990343
 24      36.3494689014      11.7547160903       3.9716083900      56.7124130335    1153.5749990343
 25      36.3494689014      11.7547160903       3.9716083900      56.7124130335    1153.5749990343
 26      36.3494689014      11.7547160903       3.9716083900      56.7124130335    1153.5749990343
 27       8.6915393208       4.2538921732       1.6335161471      15.3666770017     287.0316310533
 28       8.6915393208       4.2538921732       1.6335161471      15.3666770017     287.0316310533
 29       8.6915393208       4.2538921732       1.6335161471      15.3666770017     287.0316310533
 30       8.6915393208       4.2538921732       1.6335161471      15.3666770017     287.0316310533
 31       8.6915393208       4.2538921732       1.6335161471      15.3666770017     287.0316310533
 32       8.6915393208       4.2538921732       1.6335161471      15.3666770017     287.0316310533

+ XDM: dispersion coefficients
 All results in atomic units.
  i j C6 C8 C10 Rc Rvdw
  1   1   1.3969530125E+01   3.4641026210E+02   9.0927754141E+03   5.0513553912E+00   6.3693479128E+00
  2   1   1.4678126654E+01   4.1705277643E+02   1.2751667235E+04   5.4296615968E+00   6.6048056951E+00
  2   2   1.6315474299E+01   5.2256622237E+02   1.8126628469E+04   5.7741341834E+00   6.8192054331E+00
  3   1   1.4678126654E+01   4.1705277643E+02   1.2751667235E+04   5.4296615968E+00   6.6048056951E+00
  3   2   1.6315474299E+01   5.2256622237E+02   1.8126628469E+04   5.7741341834E+00   6.8192054331E+00
  3   3   1.6315474299E+01   5.2256622237E+02   1.8126628469E+04   5.7741341834E+00   6.8192054331E+00
  4   1   1.4678126654E+01   4.1705277643E+02   1.2751667235E+04   5.4296615968E+00   6.6048056951E+00
  4   2   1.6315474299E+01   5.2256622237E+02   1.8126628469E+04   5.7741341834E+00   6.8192054331E+00
  4   3   1.6315474299E+01   5.2256622237E+02   1.8126628469E+04   5.7741341834E+00   6.8192054331E+00
  4   4   1.6315474299E+01   5.2256622237E+02   1.8126628469E+04   5.7741341834E+00   6.8192054331E+00
  5   1   1.5872531339E+01   5.3677672842E+02   1.9977389074E+04   5.9573914234E+00   6.9332647392E+00
  5   2   1.8771590852E+01   7.0268863075E+02   2.8858451217E+04   6.2628309619E+00   7.1233703080E+00
  5   3   1.8771590852E+01   7.0268863075E+02   2.8858451217E+04   6.2628309619E+00   7.1233703080E+00
  5   4   1.8771590852E+01   7.0268863075E+02   2.8858451217E+04   6.2628309619E+00   7.1233703080E+00
  5   5   2.3342564523E+01   9.9995747100E+02   4.7110283435E+04   6.7038395472E+00   7.3978540515E+00
  6   1   1.5872531339E+01   5.3677672842E+02   1.9977389074E+04   5.9573914234E+00   6.9332647392E+00
  6   2   1.8771590852E+01   7.0268863075E+02   2.8858451217E+04   6.2628309619E+00   7.1233703080E+00
  6   3   1.8771590852E+01   7.0268863075E+02   2.8858451217E+04   6.2628309619E+00   7.1233703080E+00
  6   4   1.8771590852E+01   7.0268863075E+02   2.8858451217E+04   6.2628309619E+00   7.1233703080E+00
  6   5   2.3342564523E+01   9.9995747100E+02   4.7110283435E+04   6.7038395472E+00   7.3978540515E+00
  6   6   2.3342564523E+01   9.9995747100E+02   4.7110283435E+04   6.7038395472E+00   7.3978540515E+00
  7   1   1.5872531339E+01   5.3677672842E+02   1.9977389074E+04   5.9573914234E+00   6.9332647392E+00
  7   2   1.8771590852E+01   7.0268863075E+02   2.8858451217E+04   6.2628309619E+00   7.1233703080E+00
  7   3   1.8771590852E+01   7.0268863075E+02   2.8858451217E+04   6.2628309619E+00   7.1233703080E+00
  7   4   1.8771590852E+01   7.0268863075E+02   2.8858451217E+04   6.2628309619E+00   7.1233703080E+00
  7   5   2.3342564523E+01   9.9995747100E+02   4.7110283435E+04   6.7038395472E+00   7.3978540515E+00
  7   6   2.3342564523E+01   9.9995747100E+02   4.7110283435E+04   6.7038395472E+00   7.3978540515E+00
  7   7   2.3342564523E+01   9.9995747100E+02   4.7110283435E+04   6.7038395472E+00   7.3978540515E+00
  8   1   1.5872531339E+01   5.3677672842E+02   1.9977389074E+04   5.9573914234E+00   6.9332647392E+00
  8   2   1.8771590852E+01   7.0268863075E+02   2.8858451217E+04   6.2628309619E+00   7.1233703080E+00
  8   3   1.8771590852E+01   7.0268863075E+02   2.8858451217E+04   6.2628309619E+00   7.1233703080E+00
  8   4   1.8771590852E+01   7.0268863075E+02   2.8858451217E+04   6.2628309619E+00   7.1233703080E+00
  8   5   2.3342564523E+01   9.9995747100E+02   4.7110283435E+04   6.7038395472E+00   7.3978540515E+00
  8   6   2.3342564523E+01   9.9995747100E+02   4.7110283435E+04   6.7038395472E+00   7.3978540515E+00
  8   7   2.3342564523E+01   9.9995747100E+02   4.7110283435E+04   6.7038395472E+00   7.3978540515E+00
  8   8   2.3342564523E+01   9.9995747100E+02   4.7110283435E+04   6.7038395472E+00   7.3978540515E+00
  9   1   1.5872531339E+01   5.3677672842E+02   1.9977389074E+04   5.9573914234E+00   6.9332647392E+00
  9   2   1.8771590852E+01   7.0268863075E+02   2.8858451217E+04   6.2628309619E+00   7.1233703080E+00
  9   3   1.8771590852E+01   7.0268863075E+02   2.8858451217E+04   6.2628309619E+00   7.1233703080E+00
  9   4   1.8771590852E+01   7.0268863075E+02   2.8858451217E+04   6.2628309619E+00   7.1233703080E+00
  9   5   2.3342564523E+01   9.9995747100E+02   4.7110283435E+04   6.7038395472E+00   7.3978540515E+00
  9   6   2.3342564523E+01   9.9995747100E+02   4.7110283435E+04   6.7038395472E+00   7.3978540515E+00
  9   7   2.3342564523E+01   9.9995747100E+02   4.7110283435E+04   6.7038395472E+00   7.3978540515E+00
  9   8   2.3342564523E+01   9.9995747100E+02   4.7110283435E+04   6.7038395472E+00   7.3978540515E+00
  9   9   2.3342564523E+01   9.9995747100E+02   4.7110283435E+04   6.7038395472E+00   7.3978540515E+00
 10   1   6.3032331238E+00   1.6709527516E+02   5.4206552126E+03   5.4198949580E+00   6.5987269391E+00
 10   2   7.3558643601E+00   2.2159622703E+02   8.0133796407E+03   5.7490660632E+00   6.8036030350E+00
 10   3   7.3558643601E+00   2.2159622703E+02   8.0133796407E+03   5.7490660632E+00   6.8036030350E+00
 10   4   7.3558643601E+00   2.2159622703E+02   8.0133796407E+03   5.7490660632E+00   6.8036030350E+00
 10   5   8.9872254477E+00   3.1931487281E+02   1.3449549244E+04   6.2234675002E+00   7.0988704894E+00
 10   6   8.9872254477E+00   3.1931487281E+02   1.3449549244E+04   6.2234675002E+00   7.0988704894E+00
 10   7   8.9872254477E+00   3.1931487281E+02   1.3449549244E+04   6.2234675002E+00   7.0988704894E+00
 10   8   8.9872254477E+00   3.1931487281E+02   1.3449549244E+04   6.2234675002E+00   7.0988704894E+00
 10   9   8.9872254477E+00   3.1931487281E+02   1.3449549244E+04   6.2234675002E+00   7.0988704894E+00
 10  10   3.4744007765E+00   9.8052280538E+01   3.7333481594E+03   5.7360873198E+00   6.7955250651E+00
 11   1   6.3032331238E+00   1.6709527516E+02   5.4206552126E+03   5.4198949580E+00   6.5987269391E+00
 11   2   7.3558643601E+00   2.2159622703E+02   8.0133796407E+03   5.7490660632E+00   6.8036030350E+00
 11   3   7.3558643601E+00   2.2159622703E+02   8.0133796407E+03   5.7490660632E+00   6.8036030350E+00
 11   4   7.3558643601E+00   2.2159622703E+02   8.0133796407E+03   5.7490660632E+00   6.8036030350E+00
 11   5   8.9872254477E+00   3.1931487281E+02   1.3449549244E+04   6.2234675002E+00   7.0988704894E+00
 11   6   8.9872254477E+00   3.1931487281E+02   1.3449549244E+04   6.2234675002E+00   7.0988704894E+00
 11   7   8.9872254477E+00   3.1931487281E+02   1.3449549244E+04   6.2234675002E+00   7.0988704894E+00
 11   8   8.9872254477E+00   3.1931487281E+02   1.3449549244E+04   6.2234675002E+00   7.0988704894E+00
 11   9   8.9872254477E+00   3.1931487281E+02   1.3449549244E+04   6.2234675002E+00   7.0988704894E+00
 11  10   3.4744007765E+00   9.8052280538E+01   3.7333481594E+03   5.7360873198E+00   6.7955250651E+00
 11  11   3.4744007765E+00   9.8052280538E+01   3.7333481594E+03   5.7360873198E+00   6.7955250651E+00
 12   1   6.3032331238E+00   1.6709527516E+02   5.4206552126E+03   5.4198949580E+00   6.5987269391E+00
 12   2   7.3558643601E+00   2.2159622703E+02   8.0133796407E+03   5.7490660632E+00   6.8036030350E+00
 12   3   7.3558643601E+00   2.2159622703E+02   8.0133796407E+03   5.7490660632E+00   6.8036030350E+00
 12   4   7.3558643601E+00   2.2159622703E+02   8.0133796407E+03   5.7490660632E+00   6.8036030350E+00
 12   5   8.9872254477E+00   3.1931487281E+02   1.3449549244E+04   6.2234675002E+00   7.0988704894E+00
 12   6   8.9872254477E+00   3.1931487281E+02   1.3449549244E+04   6.2234675002E+00   7.0988704894E+00
 12   7   8.9872254477E+00   3.1931487281E+02   1.3449549244E+04   6.2234675002E+00   7.0988704894E+00
 12   8   8.9872254477E+00   3.1931487281E+02   1.3449549244E+04   6.2234675002E+00   7.0988704894E+00
 12   9   8.9872254477E+00   3.1931487281E+02   1.3449549244E+04   6.2234675002E+00   7.0988704894E+00
 12  10   3.4744007765E+00   9.8052280538E+01   3.7333481594E+03   5.7360873198E+00   6.7955250651E+00
 12  11   3.4744007765E+00   9.8052280538E+01   3.7333481594E+03   5.7360873198E+00   6.7955250651E+00
 12  12   3.4744007765E+00   9.8052280538E+01   3.7333481594E+03   5.7360873198E+00   6.7955250651E+00
 13   1   6.3032331238E+00   1.6709527516E+02   5.4206552126E+03   5.4198949580E+00   6.5987269391E+00
 13   2   7.3558643601E+00   2.2159622703E+02   8.0133796407E+03   5.7490660632E+00   6.8036030350E+00
 13   3   7.3558643601E+00   2.2159622703E+02   8.0133796407E+03   5.7490660632E+00   6.8036030350E+00
 13   4   7.3558643601E+00   2.2159622703E+02   8.0133796407E+03   5.7490660632E+00   6.8036030350E+00
 13   5   8.9872254477E+00   3.1931487281E+02   1.3449549244E+04   6.2234675002E+00   7.0988704894E+00
 13   6   8.9872254477E+00   3.1931487281E+02   1.3449549244E+04   6.2234675002E+00   7.0988704894E+00
 13   7   8.9872254477E+00   3.1931487281E+02   1.3449549244E+04   6.2234675002E+00   7.0988704894E+00
 13   8   8.9872254477E+00   3.1931487281E+02   1.3449549244E+04   6.2234675002E+00   7.0988704894E+00
 13   9   8.9872254477E+00   3.1931487281E+02   1.3449549244E+04   6.2234675002E+00   7.0988704894E+00
 13  10   3.4744007765E+00   9.8052280538E+01   3.7333481594E+03   5.7360873198E+00   6.7955250651E+00
 13  11   3.4744007765E+00   9.8052280538E+01   3.7333481594E+03   5.7360873198E+00   6.7955250651E+00
 13  12   3.4744007765E+00   9.8052280538E+01   3.7333481594E+03   5.7360873198E+00   6.7955250651E+00
 13  13   3.4744007765E+00   9.8052280538E+01   3.7333481594E+03   5.7360873198E+00   6.7955250651E+00
 14   1   6.3032331238E+00   1.6709527516E+02   5.4206552126E+03   5.4198949580E+00   6.5987269391E+00
 14   2   7.3558643601E+00   2.2159622703E+02   8.0133796407E+03   5.7490660632E+00   6.8036030350E+00
 14   3   7.3558643601E+00   2.2159622703E+02   8.0133796407E+03   5.7490660632E+00   6.8036030350E+00
 14   4   7.3558643601E+00   2.2159622703E+02   8.0133796407E+03   5.7490660632E+00   6.8036030350E+00
 14   5   8.9872254477E+00   3.1931487281E+02   1.3449549244E+04   6.2234675002E+00   7.0988704894E+00
 14   6   8.9872254477E+00   3.1931487281E+02   1.3449549244E+04   6.2234675002E+00   7.0988704894E+00
 14   7   8.9872254477E+00   3.1931487281E+02   1.3449549244E+04   6.2234675002E+00   7.0988704894E+00
 14   8   8.9872254477E+00   3.1931487281E+02   1.3449549244E+04   6.2234675002E+00   7.0988704894E+00
 14   9   8.9872254477E+00   3.1931487281E+02   1.3449549244E+04   6.2234675002E+00   7.0988704894E+00
 14  10   3.4744007765E+00   9.8052280538E+01   3.7333481594E+03   5.7360873198E+00   6.7955250651E+00
 14  11   3.4744007765E+00   9.8052280538E+01   3.7333481594E+03   5.7360873198E+00   6.7955250651E+00
 14  12   3.4744007765E+00   9.8052280538E+01   3.7333481594E+03   5.7360873198E+00   6.7955250651E+00
 14  13   3.4744007765E+00   9.8052280538E+01   3.7333481594E+03   5.7360873198E+00   6.7955250651E+00
 14  14   3.4744007765E+00   9.8052280538E+01   3.7333481594E+03   5.7360873198E+00   6.7955250651E+00
 15   1   6.3032331238E+00   1.6709527516E+02   5.4206552126E+03   5.4198949580E+00   6.5987269391E+00
 15   2   7.3558643601E+00   2.2159622703E+02   8.0133796407E+03   5.7490660632E+00   6.8036030350E+00
 15   3   7.3558643601E+00   2.2159622703E+02   8.0133796407E+03   5.7490660632E+00   6.8036030350E+00
 15   4   7.3558643601E+00   2.2159622703E+02   8.0133796407E+03   5.7490660632E+00   6.8036030350E+00
 15   5   8.9872254477E+00   3.1931487281E+02   1.3449549244E+04   6.2234675002E+00   7.0988704894E+00
 15   6   8.9872254477E+00   3.1931487281E+02   1.3449549244E+04   6.2234675002E+00   7.0988704894E+00
 15   7   8.9872254477E+00   3.1931487281E+02   1.3449549244E+04   6.2234675002E+00   7.0988704894E+00
 15   8   8.9872254477E+00   3.1931487281E+02   1.3449549244E+04   6.2234675002E+00   7.0988704894E+00
 15   9   8.9872254477E+00   3.1931487281E+02   1.3449549244E+04   6.2234675002E+00   7.0988704894E+00
 15  10   3.4744007765E+00   9.8052280538E+01   3.7333481594E+03   5.7360873198E+00   6.7955250651E+00
 15  11   3.4744007765E+00   9.8052280538E+01   3.7333481594E+03   5.7360873198E+00   6.7955250651E+00
 15  12   3.4744007765E+00   9.8052280538E+01   3.7333481594E+03   5.7360873198E+00   6.7955250651E+00
 15  13   3.4744007765E+00   9.8052280538E+01   3.7333481594E+03   5.7360873198E+00   6.7955250651E+00
 15  14   3.4744007765E+00   9.8052280538E+01   3.7333481594E+03   5.7360873198E+00   6.7955250651E+00
 15  15   3.4744007765E+00   9.8052280538E+01   3.7333481594E+03   5.7360873198E+00   6.7955250651E+00
 16   1   1.3969530125E+01   3.4641026210E+02   9.0927754141E+03   5.0513553912E+00   6.3693479128E+00
 16   2   1.4678126654E+01   4.1705277643E+02   1.2751667235E+04   5.4296615968E+00   6.6048056951E+00
 16   3   1.4678126654E+01   4.1705277643E+02   1.2751667235E+04   5.4296615968E+00   6.6048056951E+00
 16   4   1.4678126654E+01   4.1705277643E+02   1.2751667235E+04   5.4296615968E+00   6.6048056951E+00
 16   5   1.5872531339E+01   5.3677672842E+02   1.9977389074E+04   5.9573914234E+00   6.9332647392E+00
 16   6   1.5872531339E+01   5.3677672842E+02   1.9977389074E+04   5.9573914234E+00   6.9332647392E+00
 16   7   1.5872531339E+01   5.3677672842E+02   1.9977389074E+04   5.9573914234E+00   6.9332647392E+00
 16   8   1.5872531339E+01   5.3677672842E+02   1.9977389074E+04   5.9573914234E+00   6.9332647392E+00
 16   9   1.5872531339E+01   5.3677672842E+02   1.9977389074E+04   5.9573914234E+00   6.9332647392E+00
 16  10   6.3032331238E+00   1.6709527516E+02   5.4206552126E+03   5.4198949580E+00   6.5987269391E+00
 16  11   6.3032331238E+00   1.6709527516E+02   5.4206552126E+03   5.4198949580E+00   6.5987269391E+00
 16  12   6.3032331238E+00   1.6709527516E+02   5.4206552126E+03   5.4198949580E+00   6.5987269391E+00
 16  13   6.3032331238E+00   1.6709527516E+02   5.4206552126E+03   5.4198949580E+00   6.5987269391E+00
 16  14   6.3032331238E+00   1.6709527516E+02   5.4206552126E+03   5.4198949580E+00   6.5987269391E+00
 16  15   6.3032331238E+00   1.6709527516E+02   5.4206552126E+03   5.4198949580E+00   6.5987269391E+00
 16  16   1.3969530125E+01   3.4641026210E+02   9.0927754141E+03   5.0513553912E+00   6.3693479128E+00
 17   1   1.4678126654E+01   4.1705277643E+02   1.2751667235E+04   5.4296615968E+00   6.6048056951E+00
 17   2   1.6315474299E+01   5.2256622237E+02   1.8126628469E+04   5.7741341834E+00   6.8192054331E+00
 17   3   1.6315474299E+01   5.2256622237E+02   1.8126628469E+04   5.7741341834E+00   6.8192054331E+00
 17   4   1.6315474299E+01   5.2256622237E+02   1.8126628469E+04   5.7741341834E+00   6.8192054331E+00
 17   5   1.8771590852E+01   7.0268863075E+02   2.8858451217E+04   6.2628309619E+00   7.1233703080E+00
 17   6   1.8771590852E+01   7.0268863075E+02   2.8858451217E+04   6.2628309619E+00   7.1233703080E+00
 17   7   1.8771590852E+01   7.0268863075E+02   2.8858451217E+04   6.2628309619E+00   7.1233703080E+00
 17   8   1.8771590852E+01   7.0268863075E+02   2.8858451217E+04   6.2628309619E+00   7.1233703080E+00
 17   9   1.8771590852E+01   7.0268863075E+02   2.8858451217E+04   6.2628309619E+00   7.1233703080E+00
 17  10   7.3558643601E+00   2.2159622703E+02   8.0133796407E+03   5.7490660632E+00   6.8036030350E+00
 17  11   7.3558643601E+00   2.2159622703E+02   8.0133796407E+03   5.7490660632E+00   6.8036030350E+00
 17  12   7.3558643601E+00   2.2159622703E+02   8.0133796407E+03   5.7490660632E+00   6.8036030350E+00
 17  13   7.3558643601E+00   2.2159622703E+02   8.0133796407E+03   5.7490660632E+00   6.8036030350E+00
 17  14   7.3558643601E+00   2.2159622703E+02   8.0133796407E+03   5.7490660632E+00   6.8036030350E+00
 17  15   7.3558643601E+00   2.2159622703E+02   8.0133796407E+03   5.7490660632E+00   6.8036030350E+00
 17  16   1.4678126654E+01   4.1705277643E+02   1.2751667235E+04   5.4296615968E+00   6.6048056951E+00
 17  17   1.6315474299E+01   5.2256622237E+02   1.8126628469E+04   5.7741341834E+00   6.8192054331E+00
 18   1   1.4678126654E+01   4.1705277643E+02   1.2751667235E+04   5.4296615968E+00   6.6048056951E+00
 18   2   1.6315474299E+01   5.2256622237E+02   1.8126628469E+04   5.7741341834E+00   6.8192054331E+00
 18   3   1.6315474299E+01   5.2256622237E+02   1.8126628469E+04   5.7741341834E+00   6.8192054331E+00
 18   4   1.6315474299E+01   5.2256622237E+02   1.8126628469E+04   5.7741341834E+00   6.8192054331E+00
 18   5   1.8771590852E+01   7.0268863075E+02   2.8858451217E+04   6.2628309619E+00   7.1233703080E+00
 18   6   1.8771590852E+01   7.0268863075E+02   2.8858451217E+04   6.2628309619E+00   7.1233703080E+00
 18   7   1.8771590852E+01   7.0268863075E+02   2.8858451217E+04   6.2628309619E+00   7.1233703080E+00
 18   8   1.8771590852E+01   7.0268863075E+02   2.8858451217E+04   6.2628309619E+00   7.1233703080E+00
 18   9   1.8771590852E+01   7.0268863075E+02   2.8858451217E+04   6.2628309619E+00   7.1233703080E+00
 18  10   7.3558643601E+00   2.2159622703E+02   8.0133796407E+03   5.7490660632E+00   6.8036030350E+00
 18  11   7.3558643601E+00   2.2159622703E+02   8.0133796407E+03   5.7490660632E+00   6.8036030350E+00
 18  12   7.3558643601E+00   2.2159622703E+02   8.0133796407E+03   5.7490660632E+00   6.8036030350E+00
 18  13   7.3558643601E+00   2.2159622703E+02   8.0133796407E+03   5.7490660632E+00   6.8036030350E+00
 18  14   7.3558643601E+00   2.2159622703E+02   8.0133796407E+03   5.7490660632E+00   6.8036030350E+00
 18  15   7.3558643601E+00   2.2159622703E+02   8.0133796407E+03   5.7490660632E+00   6.8036030350E+00
 18  16   1.4678126654E+01   4.1705277643E+02   1.2751667235E+04   5.4296615968E+00   6.6048056951E+00
 18  17   1.6315474299E+01   5.2256622237E+02   1.8126628469E+04   5.7741341834E+00   6.8192054331E+00
 18  18   1.6315474299E+01   5.2256622237E+02   1.8126628469E+04   5.7741341834E+00   6.8192054331E+00
 19   1   1.4678126654E+01   4.1705277643E+02   1.2751667235E+04   5.4296615968E+00   6.6048056951E+00
 19   2   1.6315474299E+01   5.2256622237E+02   1.8126628469E+04   5.7741341834E+00   6.8192054331E+00
 19   3   1.6315474299E+01   5.2256622237E+02   1.8126628469E+04   5.7741341834E+00   6.8192054331E+00
 19   4   1.6315474299E+01   5.2256622237E+02   1.8126628469E+04   5.7741341834E+00   6.8192054331E+00
 19   5   1.8771590852E+01   7.0268863075E+02   2.8858451217E+04   6.2628309619E+00   7.1233703080E+00
 19   6   1.8771590852E+01   7.0268863075E+02   2.8858451217E+04   6.2628309619E+00   7.1233703080E+00
 19   7   1.8771590852E+01   7.0268863075E+02   2.8858451217E+04   6.2628309619E+00   7.1233703080E+00
 19   8   1.8771590852E+01   7.0268863075E+02   2.8858451217E+04   6.2628309619E+00   7.1233703080E+00
 19   9   1.8771590852E+01   7.0268863075E+02   2.8858451217E+04   6.2628309619E+00   7.1233703080E+00
 19  10   7.3558643601E+00   2.2159622703E+02   8.0133796407E+03   5.7490660632E+00   6.8036030350E+00
 19  11   7.3558643601E+00   2.2159622703E+02   8.0133796407E+03   5.7490660632E+00   6.8036030350E+00
 19  12   7.3558643601E+00   2.2159622703E+02   8.0133796407E+03   5.7490660632E+00   6.8036030350E+00
 19  13   7.3558643601E+00   2.2159622703E+02   8.0133796407E+03   5.7490660632E+00   6.8036030350E+00
 19  14   7.3558643601E+00   2.2159622703E+02   8.0133796407E+03   5.7490660632E+00   6.8036030350E+00
 19  15   7.3558643601E+00   2.2159622703E+02   8.0133796407E+03   5.7490660632E+00   6.8036030350E+00
 19  16   1.4678126654E+01   4.1705277643E+02   1.2751667235E+04   5.4296615968E+00   6.6048056951E+00
 19  17   1.6315474299E+01   5.2256622237E+02   1.8126628469E+04   5.7741341834E+00   6.8192054331E+00
 19  18   1.6315474299E+01   5.2256622237E+02   1.8126628469E+04   5.7741341834E+00   6.8192054331E+00
 19  19   1.6315474299E+01   5.2256622237E+02   1.8126628469E+04   5.7741341834E+00   6.8192054331E+00
 20   1   1.4678126654E+01   4.1705277643E+02   1.2751667235E+04   5.4296615968E+00   6.6048056951E+00
 20   2   1.6315474299E+01   5.2256622237E+02   1.8126628469E+04   5.7741341834E+00   6.8192054331E+00
 20   3   1.6315474299E+01   5.2256622237E+02   1.8126628469E+04   5.7741341834E+00   6.8192054331E+00
 20   4   1.6315474299E+01   5.2256622237E+02   1.8126628469E+04   5.7741341834E+00   6.8192054331E+00
 20   5   1.8771590852E+01   7.0268863075E+02   2.8858451217E+04   6.2628309619E+00   7.1233703080E+00
 20   6   1.8771590852E+01   7.0268863075E+02   2.8858451217E+04   6.2628309619E+00   7.1233703080E+00
 20   7   1.8771590852E+01   7.0268863075E+02   2.8858451217E+04   6.2628309619E+00   7.1233703080E+00
 20   8   1.8771590852E+01   7.0268863075E+02   2.8858451217E+04   6.2628309619E+00   7.1233703080E+00
 20   9   1.8771590852E+01   7.0268863075E+02   2.8858451217E+04   6.2628309619E+00   7.1233703080E+00
 20  10   7.3558643601E+00   2.2159622703E+02   8.0133796407E+03   5.7490660632E+00   6.8036030350E+00
 20  11   7.3558643601E+00   2.2159622703E+02   8.0133796407E+03   5.7490660632E+00   6.8036030350E+00
 20  12   7.3558643601E+00   2.2159622703E+02   8.0133796407E+03   5.7490660632E+00   6.8036030350E+00
 20  13   7.3558643601E+00   2.2159622703E+02   8.0133796407E+03   5.7490660632E+00   6.8036030350E+00
 20  14   7.3558643601E+00   2.2159622703E+02   8.0133796407E+03   5.7490660632E+00   6.8036030350E+00
 20  15   7.3558643601E+00   2.2159622703E+02   8.0133796407E+03   5.7490660632E+00   6.8036030350E+00
 20  16   1.4678126654E+01   4.1705277643E+02   1.2751667235E+04   5.4296615968E+00   6.6048056951E+00
 20  17   1.6315474299E+01   5.2256622237E+02   1.8126628469E+04   5.7741341834E+00   6.8192054331E+00
 20  18   1.6315474299E+01   5.2256622237E+02   1.8126628469E+04   5.7741341834E+00   6.8192054331E+00
 20  19   1.6315474299E+01   5.2256622237E+02   1.8126628469E+04   5.7741341834E+00   6.8192054331E+00
 20  20   1.6315474299E+01   5.2256622237E+02   1.8126628469E+04   5.7741341834E+00   6.8192054331E+00
 21   1   1.4678126654E+01   4.1705277643E+02   1.2751667235E+04   5.4296615968E+00   6.6048056951E+00
 21   2   1.6315474299E+01   5.2256622237E+02   1.8126628469E+04   5.7741341834E+00   6.8192054331E+00
 21   3   1.6315474299E+01   5.2256622237E+02   1.8126628469E+04   5.7741341834E+00   6.8192054331E+00
 21   4   1.6315474299E+01   5.2256622237E+02   1.8126628469E+04   5.7741341834E+00   6.8192054331E+00
 21   5   1.8771590852E+01   7.0268863075E+02   2.8858451217E+04   6.2628309619E+00   7.1233703080E+00
 21   6   1.8771590852E+01   7.0268863075E+02   2.8858451217E+04   6.2628309619E+00   7.1233703080E+00
 21   7   1.8771590852E+01   7.0268863075E+02   2.8858451217E+04   6.2628309619E+00   7.1233703080E+00
 21   8   1.8771590852E+01   7.0268863075E+02   2.8858451217E+04   6.2628309619E+00   7.1233703080E+00
 21   9   1.8771590852E+01   7.0268863075E+02   2.8858451217E+04   6.2628309619E+00   7.1233703080E+00
 21  10   7.3558643601E+00   2.2159622703E+02   8.0133796407E+03   5.7490660632E+00   6.8036030350E+00
 21  11   7.3558643601E+00   2.2159622703E+02   8.0133796407E+03   5.7490660632E+00   6.8036030350E+00
 21  12   7.3558643601E+00   2.2159622703E+02   8.0133796407E+03   5.7490660632E+00   6.8036030350E+00
 21  13   7.3558643601E+00   2.2159622703E+02   8.0133796407E+03   5.7490660632E+00   6.8036030350E+00
 21  14   7.3558643601E+00   2.2159622703E+02   8.0133796407E+03   5.7490660632E+00   6.8036030350E+00
 21  15   7.3558643601E+00   2.2159622703E+02   8.0133796407E+03   5.7490660632E+00   6.8036030350E+00
 21  16   1.4678126654E+01   4.1705277643E+02   1.2751667235E+04   5.4296615968E+00   6.6048056951E+00
 21  17   1.6315474299E+01   5.2256622237E+02   1.8126628469E+04   5.7741341834E+00   6.8192054331E+00
 21  18   1.6315474299E+01   5.2256622237E+02   1.8126628469E+04   5.7741341834E+00   6.8192054331E+00
 21  19   1.6315474299E+01   5.2256622237E+02   1.8126628469E+04   5.7741341834E+00   6.8192054331E+00
 21  20   1.6315474299E+01   5.2256622237E+02   1.8126628469E+04   5.7741341834E+00   6.8192054331E+00
 21  21   1.6315474299E+01   5.2256622237E+02   1.8126628469E+04   5.7741341834E+00   6.8192054331E+00
 22   1   1.5872531339E+01   5.3677672842E+02   1.9977389074E+04   5.9573914234E+00   6.9332647392E+00
 22   2   1.8771590852E+01   7.0268863075E+02   2.8858451217E+04   6.2628309619E+00   7.1233703080E+00
 22   3   1.8771590852E+01   7.0268863075E+02   2.8858451217E+04   6.2628309619E+00   7.1233703080E+00
 22   4   1.8771590852E+01   7.0268863075E+02   2.8858451217E+04   6.2628309619E+00   7.1233703080E+00
 22   5   2.3342564523E+01   9.9995747100E+02   4.7110283435E+04   6.7038395472E+00   7.3978540515E+00
 22   6   2.3342564523E+01   9.9995747100E+02   4.7110283435E+04   6.7038395472E+00   7.3978540515E+00
 22   7   2.3342564523E+01   9.9995747100E+02   4.7110283435E+04   6.7038395472E+00   7.3978540515E+00
 22   8   2.3342564523E+01   9.9995747100E+02   4.7110283435E+04   6.7038395472E+00   7.3978540515E+00
 22   9   2.3342564523E+01   9.9995747100E+02   4.7110283435E+04   6.7038395472E+00   7.3978540515E+00
 22  10   8.9872254477E+00   3.1931487281E+02   1.3449549244E+04   6.2234675002E+00   7.0988704894E+00
 22  11   8.9872254477E+00   3.1931487281E+02   1.3449549244E+04   6.2234675002E+00   7.0988704894E+00
 22  12   8.9872254477E+00   3.1931487281E+02   1.3449549244E+04   6.2234675002E+00   7.0988704894E+00
 22  13   8.9872254477E+00   3.1931487281E+02   1.3449549244E+04   6.2234675002E+00   7.0988704894E+00
 22  14   8.9872254477E+00   3.1931487281E+02   1.3449549244E+04   6.2234675002E+00   7.0988704894E+00
 22  15   8.9872254477E+00   3.1931487281E+02   1.3449549244E+04   6.2234675002E+00   7.0988704894E+00
 22  16   1.5872531339E+01   5.3677672842E+02   1.9977389074E+04   5.9573914234E+00   6.9332647392E+00
 22  17   1.8771590852E+01   7.0268863075E+02   2.8858451217E+04   6.2628309619E+00   7.1233703080E+00
 22  18   1.8771590852E+01   7.0268863075E+02   2.8858451217E+04   6.2628309619E+00   7.1233703080E+00
 22  19   1.8771590852E+01   7.0268863075E+02   2.8858451217E+04   6.2628309619E+00   7.1233703080E+00
 22  20   1.8771590852E+01   7.0268863075E+02   2.8858451217E+04   6.2628309619E+00   7.1233703080E+00
 22  21   1.8771590852E+01   7.0268863075E+02   2.8858451217E+04   6.2628309619E+00   7.1233703080E+00
 22  22   2.3342564523E+01   9.9995747100E+02   4.7110283435E+04   6.7038395472E+00   7.3978540515E+00
 23   1   1.5872531339E+01   5.3677672842E+02   1.9977389074E+04   5.9573914234E+00   6.9332647392E+00
 23   2   1.8771590852E+01   7.0268863075E+02   2.8858451217E+04   6.2628309619E+00   7.1233703080E+00
 23   3   1.8771590852E+01   7.0268863075E+02   2.8858451217E+04   6.2628309619E+00   7.1233703080E+00
 23   4   1.8771590852E+01   7.0268863075E+02   2.8858451217E+04   6.2628309619E+00   7.1233703080E+00
 23   5   2.3342564523E+01   9.9995747100E+02   4.7110283435E+04   6.7038395472E+00   7.3978540515E+00
 23   6   2.3342564523E+01   9.9995747100E+02   4.7110283435E+04   6.7038395472E+00   7.3978540515E+00
 23   7   2.3342564523E+01   9.9995747100E+02   4.7110283435E+04   6.7038395472E+00   7.3978540515E+00
 23   8   2.3342564523E+01   9.9995747100E+02   4.7110283435E+04   6.7038395472E+00   7.3978540515E+00
 23   9   2.3342564523E+01   9.9995747100E+02   4.7110283435E+04   6.7038395472E+00   7.3978540515E+00
 23  10   8.9872254477E+00   3.1931487281E+02   1.3449549244E+04   6.2234675002E+00   7.0988704894E+00
 23  11   8.9872254477E+00   3.1931487281E+02   1.3449549244E+04   6.2234675002E+00   7.0988704894E+00
 23  12   8.9872254477E+00   3.1931487281E+02   1.3449549244E+04   6.2234675002E+00   7.0988704894E+00
 23  13   8.9872254477E+00   3.1931487281E+02   1.3449549244E+04   6.2234675002E+00   7.0988704894E+00
 23  14   8.9872254477E+00   3.1931487281E+02   1.3449549244E+04   6.2234675002E+00   7.0988704894E+00
 23  15   8.9872254477E+00   3.1931487281E+02   1.3449549244E+04   6.2234675002E+00   7.0988704894E+00
 23  16   1.5872531339E+01   5.3677672842E+02   1.9977389074E+04   5.9573914234E+00   6.9332647392E+00
 23  17   1.8771590852E+01   7.0268863075E+02   2.8858451217E+04   6.2628309619E+00   7.1233703080E+00
 23  18   1.8771590852E+01   7.0268863075E+02   2.8858451217E+04   6.2628309619E+00   7.1233703080E+00
 23  19   1.8771590852E+01   7.0268863075E+02   2.8858451217E+04   6.2628309619E+00   7.1233703080E+00
 23  20   1.8771590852E+01   7.0268863075E+02   2.8858451217E+04   6.2628309619E+00   7.1233703080E+00
 23  21   1.8771590852E+01   7.0268863075E+02   2.8858451217E+04   6.2628309619E+00   7.1233703080E+00
 23  22   2.3342564523E+01   9.9995747100E+02   4.7110283435E+04   6.7038395472E+00   7.3978540515E+00
 23  23   2.3342564523E+01   9.9995747100E+02   4.7110283435E+04   6.7038395472E+00   7.3978540515E+00
 24   1   1.5872531339E+01   5.3677672842E+02   1.9977389074E+04   5.9573914234E+00   6.9332647392E+00
 24   2   1.8771590852E+01   7.0268863075E+02   2.8858451217E+04   6.2628309619E+00   7.1233703080E+00
 24   3   1.8771590852E+01   7.0268863075E+02   2.8858451217E+04   6.2628309619E+00   7.1233703080E+00
 24   4   1.8771590852E+01   7.0268863075E+02   2.8858451217E+04   6.2628309619E+00   7.1233703080E+00
 24   5   2.3342564523E+01   9.9995747100E+02   4.7110283435E+04   6.7038395472E+00   7.3978540515E+00
 24   6   2.3342564523E+01   9.9995747100E+02   4.7110283435E+04   6.7038395472E+00   7.3978540515E+00
 24   7   2.3342564523E+01   9.9995747100E+02   4.7110283435E+04   6.7038395472E+00   7.3978540515E+00
 24   8   2.3342564523E+01   9.9995747100E+02   4.7110283435E+04   6.7038395472E+00   7.3978540515E+00
 24   9   2.3342564523E+01   9.9995747100E+02   4.7110283435E+04   6.7038395472E+00   7.3978540515E+00
 24  10   8.9872254477E+00   3.1931487281E+02   1.3449549244E+04   6.2234675002E+00   7.0988704894E+00
 24  11   8.9872254477E+00   3.1931487281E+02   1.3449549244E+04   6.2234675002E+00   7.0988704894E+00
 24  12   8.9872254477E+00   3.1931487281E+02   1.3449549244E+04   6.2234675002E+00   7.0988704894E+00
 24  13   8.9872254477E+00   3.1931487281E+02   1.3449549244E+04   6.2234675002E+00   7.0988704894E+00
 24  14   8.9872254477E+00   3.1931487281E+02   1.3449549244E+04   6.2234675002E+00   7.0988704894E+00
 24  15   8.9872254477E+00   3.1931487281E+02   1.3449549244E+04   6.2234675002E+00   7.0988704894E+00
 24  16   1.5872531339E+01   5.3677672842E+02   1.9977389074E+04   5.9573914234E+00   6.9332647392E+00
 24  17   1.8771590852E+01   7.0268863075E+02   2.8858451217E+04   6.2628309619E+00   7.1233703080E+00
 24  18   1.8771590852E+01   7.0268863075E+02   2.8858451217E+04   6.2628309619E+00   7.1233703080E+00
 24  19   1.8771590852E+01   7.0268863075E+02   2.8858451217E+04   6.2628309619E+00   7.1233703080E+00
 24  20   1.8771590852E+01   7.0268863075E+02   2.8858451217E+04   6.2628309619E+00   7.1233703080E+00
 24  21   1.8771590852E+01   7.0268863075E+02   2.8858451217E+04   6.2628309619E+00   7.1233703080E+00
 24  22   2.3342564523E+01   9.9995747100E+02   4.7110283435E+04   6.7038395472E+00   7.3978540515E+00
 24  23   2.3342564523E+01   9.9995747100E+02   4.7110283435E+04   6.7038395472E+00   7.3978540515E+00
 24  24   2.3342564523E+01   9.9995747100E+02   4.7110283435E+04   6.7038395472E+00   7.3978540515E+00
 25   1   1.5872531339E+01   5.3677672842E+02   1.9977389074E+04   5.9573914234E+00   6.9332647392E+00
 25   2   1.8771590852E+01   7.0268863075E+02   2.8858451217E+04   6.2628309619E+00   7.1233703080E+00
 25   3   1.8771590852E+01   7.0268863075E+02   2.8858451217E+04   6.2628309619E+00   7.1233703080E+00
 25   4   1.8771590852E+01   7.0268863075E+02   2.8858451217E+04   6.2628309619E+00   7.1233703080E+00
 25   5   2.3342564523E+01   9.9995747100E+02   4.7110283435E+04   6.7038395472E+00   7.3978540515E+00
 25   6   2.3342564523E+01   9.9995747100E+02   4.7110283435E+04   6.7038395472E+00   7.3978540515E+00
 25   7   2.3342564523E+01   9.9995747100E+02   4.7110283435E+04   6.7038395472E+00   7.3978540515E+00
 25   8   2.3342564523E+01   9.9995747100E+02   4.7110283435E+04   6.7038395472E+00   7.3978540515E+00
 25   9   2.3342564523E+01   9.9995747100E+02   4.7110283435E+04   6.7038395472E+00   7.3978540515E+00
 25  10   8.9872254477E+00   3.1931487281E+02   1.3449549244E+04   6.2234675002E+00   7.0988704894E+00
 25  11   8.9872254477E+00   3.1931487281E+02   1.3449549244E+04   6.2234675002E+00   7.0988704894E+00
 25  12   8.9872254477E+00   3.1931487281E+02   1.3449549244E+04   6.2234675002E+00   7.0988704894E+00
 25  13   8.9872254477E+00   3.1931487281E+02   1.3449549244E+04   6.2234675002E+00   7.0988704894E+00
 25  14   8.9872254477E+00   3.1931487281E+02   1.3449549244E+04   6.2234675002E+00   7.0988704894E+00
 25  15   8.9872254477E+00   3.1931487281E+02   1.3449549244E+04   6.2234675002E+00   7.0988704894E+00
 25  16   1.5872531339E+01   5.3677672842E+02   1.9977389074E+04   5.9573914234E+00   6.9332647392E+00
 25  17   1.8771590852E+01   7.0268863075E+02   2.8858451217E+04   6.2628309619E+00   7.1233703080E+00
 25  18   1.8771590852E+01   7.0268863075E+02   2.8858451217E+04   6.2628309619E+00   7.1233703080E+00
 25  19   1.8771590852E+01   7.0268863075E+02   2.8858451217E+04   6.2628309619E+00   7.1233703080E+00
 25  20   1.8771590852E+01   7.0268863075E+02   2.8858451217E+04   6.2628309619E+00   7.1233703080E+00
 25  21   1.8771590852E+01   7.0268863075E+02   2.8858451217E+04   6.2628309619E+00   7.1233703080E+00
 25  22   2.3342564523E+01   9.9995747100E+02   4.7110283435E+04   6.7038395472E+00   7.3978540515E+00
 25  23   2.3342564523E+01   9.9995747100E+02   4.7110283435E+04   6.7038395472E+00   7.3978540515E+00
 25  24   2.3342564523E+01   9.9995747100E+02   4.7110283435E+04   6.7038395472E+00   7.3978540515E+00
 25  25   2.3342564523E+01   9.9995747100E+02   4.7110283435E+04   6.7038395472E+00   7.3978540515E+00
 26   1   1.5872531339E+01   5.3677672842E+02   1.9977389074E+04   5.9573914234E+00   6.9332647392E+00
 26   2   1.8771590852E+01   7.0268863075E+02   2.8858451217E+04   6.2628309619E+00   7.1233703080E+00
 26   3   1.8771590852E+01   7.0268863075E+02   2.8858451217E+04   6.2628309619E+00   7.1233703080E+00
 26   4   1.8771590852E+01   7.0268863075E+02   2.8858451217E+04   6.2628309619E+00   7.1233703080E+00
 26   5   2.3342564523E+01   9.9995747100E+02   4.7110283435E+04   6.7038395472E+00   7.3978540515E+00
 26   6   2.3342564523E+01   9.9995747100E+02   4.7110283435E+04   6.7038395472E+00   7.3978540515E+00
 26   7   2.3342564523E+01   9.9995747100E+02   4.7110283435E+04   6.7038395472E+00   7.3978540515E+00
 26   8   2.3342564523E+01   9.9995747100E+02   4.7110283435E+04   6.7038395472E+00   7.3978540515E+00
 26   9   2.3342564523E+01   9.9995747100E+02   4.7110283435E+04   6.7038395472E+00   7.3978540515E+00
 26  10   8.9872254477E+00   3.1931487281E+02   1.3449549244E+04   6.2234675002E+00   7.0988704894E+00
 26  11   8.9872254477E+00   3.1931487281E+02   1.3449549244E+04   6.2234675002E+00   7.0988704894E+00
 26  12   8.9872254477E+00   3.1931487281E+02   1.3449549244E+04   6.2234675002E+00   7.0988704894E+00
 26  13   8.9872254477E+00   3.1931487281E+02   1.3449549244E+04   6.2234675002E+00   7.0988704894E+00
 26  14   8.9872254477E+00   3.1931487281E+02   1.3449549244E+04   6.2234675002E+00   7.0988704894E+00
 26  15   8.9872254477E+00   3.1931487281E+02   1.3449549244E+04   6.2234675002E+00   7.0988704894E+00
 26  16   1.5872531339E+01   5.3677672842E+02   1.9977389074E+04   5.9573914234E+00   6.9332647392E+00
 26  17   1.8771590852E+01   7.0268863075E+02   2.8858451217E+04   6.2628309619E+00   7.1233703080E+00
 26  18   1.8771590852E+01   7.0268863075E+02   2.8858451217E+04   6.2628309619E+00   7.1233703080E+00
 26  19   1.8771590852E+01   7.0268863075E+02   2.8858451217E+04   6.2628309619E+00   7.1233703080E+00
 26  20   1.8771590852E+01   7.0268863075E+02   2.8858451217E+04   6.2628309619E+00   7.1233703080E+00
 26  21   1.8771590852E+01   7.0268863075E+02   2.8858451217E+04   6.2628309619E+00   7.1233703080E+00
 26  22   2.3342564523E+01   9.9995747100E+02   4.7110283435E+04   6.7038395472E+00   7.3978540515E+00
 26  23   2.3342564523E+01   9.9995747100E+02   4.7110283435E+04   6.7038395472E+00   7.3978540515E+00
 26  24   2.3342564523E+01   9.9995747100E+02   4.7110283435E+04   6.7038395472E+00   7.3978540515E+00
 26  25   2.3342564523E+01   9.9995747100E+02   4.7110283435E+04   6.7038395472E+00   7.3978540515E+00
 26  26   2.3342564523E+01   9.9995747100E+02   4.7110283435E+04   6.7038395472E+00   7.3978540515E+00
 27   1   6.3032331238E+00   1.6709527516E+02   5.4206552126E+03   5.4198949580E+00   6.5987269391E+00
 27   2   7.3558643601E+00   2.2159622703E+02   8.0133796407E+03   5.7490660632E+00   6.8036030350E+00
 27   3   7.3558643601E+00   2.2159622703E+02   8.0133796407E+03   5.7490660632E+00   6.8036030350E+00
 27   4   7.3558643601E+00   2.2159622703E+02   8.0133796407E+03   5.7490660632E+00   6.8036030350E+00
 27   5   8.9872254477E+00   3.1931487281E+02   1.3449549244E+04   6.2234675002E+00   7.0988704894E+00
 27   6   8.9872254477E+00   3.1931487281E+02   1.3449549244E+04   6.2234675002E+00   7.0988704894E+00
 27   7   8.9872254477E+00   3.1931487281E+02   1.3449549244E+04   6.2234675002E+00   7.0988704894E+00
 27   8   8.9872254477E+00   3.1931487281E+02   1.3449549244E+04   6.2234675002E+00   7.0988704894E+00
 27   9   8.9872254477E+00   3.1931487281E+02   1.3449549244E+04   6.2234675002E+00   7.0988704894E+00
 27  10   3.4744007765E+00   9.8052280538E+01   3.7333481594E+03   5.7360873198E+00   6.7955250651E+00
 27  11   3.4744007765E+00   9.8052280538E+01   3.7333481594E+03   5.7360873198E+00   6.7955250651E+00
 27  12   3.4744007765E+00   9.8052280538E+01   3.7333481594E+03   5.7360873198E+00   6.7955250651E+00
 27  13   3.4744007765E+00   9.8052280538E+01   3.7333481594E+03   5.7360873198E+00   6.7955250651E+00
 27  14   3.4744007765E+00   9.8052280538E+01   3.7333481594E+03   5.7360873198E+00   6.7955250651E+00
 27  15   3.4744007765E+00   9.8052280538E+01   3.7333481594E+03   5.7360873198E+00   6.7955250651E+00
 27  16   6.3032331238E+00   1.6709527516E+02   5.4206552126E+03   5.4198949580E+00   6.5987269391E+00
 27  17   7.3558643601E+00   2.2159622703E+02   8.0133796407E+03   5.7490660632E+00   6.8036030350E+00
 27  18   7.3558643601E+00   2.2159622703E+02   8.0133796407E+03   5.7490660632E+00   6.8036030350E+00
 27  19   7.3558643601E+00   2.2159622703E+02   8.0133796407E+03   5.7490660632E+00   6.8036030350E+00
 27  20   7.3558643601E+00   2.2159622703E+02   8.0133796407E+03   5.7490660632E+00   6.8036030350E+00
 27  21   7.3558643601E+00   2.2159622703E+02   8.0133796407E+03   5.7490660632E+00   6.8036030350E+00
 27  22   8.9872254477E+00   3.1931487281E+02   1.3449549244E+04   6.2234675002E+00   7.0988704894E+00
 27  23   8.9872254477E+00   3.1931487281E+02   1.3449549244E+04   6.2234675002E+00   7.0988704894E+00
 27  24   8.9872254477E+00   3.1931487281E+02   1.3449549244E+04   6.2234675002E+00   7.0988704894E+00
 27  25   8.9872254477E+00   3.1931487281E+02   1.3449549244E+04   6.2234675002E+00   7.0988704894E+00
 27  26   8.9872254477E+00   3.1931487281E+02   1.3449549244E+04   6.2234675002E+00   7.0988704894E+00
 27  27   3.4744007765E+00   9.8052280538E+01   3.7333481594E+03   5.7360873198E+00   6.7955250651E+00
 28   1   6.3032331238E+00   1.6709527516E+02   5.4206552126E+03   5.4198949580E+00   6.5987269391E+00
 28   2   7.3558643601E+00   2.2159622703E+02   8.0133796407E+03   5.7490660632E+00   6.8036030350E+00
 28   3   7.3558643601E+00   2.2159622703E+02   8.0133796407E+03   5.7490660632E+00   6.8036030350E+00
 28   4   7.3558643601E+00   2.2159622703E+02   8.0133796407E+03   5.7490660632E+00   6.8036030350E+00
 28   5   8.9872254477E+00   3.1931487281E+02   1.3449549244E+04   6.2234675002E+00   7.0988704894E+00
 28   6   8.9872254477E+00   3.1931487281E+02   1.3449549244E+04   6.2234675002E+00   7.0988704894E+00
 28   7   8.9872254477E+00   3.1931487281E+02   1.3449549244E+04   6.2234675002E+00   7.0988704894E+00
 28   8   8.9872254477E+00   3.1931487281E+02   1.3449549244E+04   6.2234675002E+00   7.0988704894E+00
 28   9   8.9872254477E+00   3.1931487281E+02   1.3449549244E+04   6.2234675002E+00   7.0988704894E+00
 28  10   3.4744007765E+00   9.8052280538E+01   3.7333481594E+03   5.7360873198E+00   6.7955250651E+00
 28  11   3.4744007765E+00   9.8052280538E+01   3.7333481594E+03   5.7360873198E+00   6.7955250651E+00
 28  12   3.4744007765E+00   9.8052280538E+01   3.7333481594E+03   5.7360873198E+00   6.7955250651E+00
 28  13   3.4744007765E+00   9.8052280538E+01   3.7333481594E+03   5.7360873198E+00   6.7955250651E+00
 28  14   3.4744007765E+00   9.8052280538E+01   3.7333481594E+03   5.7360873198E+00   6.7955250651E+00
 28  15   3.4744007765E+00   9.8052280538E+01   3.7333481594E+03   5.7360873198E+00   6.7955250651E+00
 28  16   6.3032331238E+00   1.6709527516E+02   5.4206552126E+03   5.4198949580E+00   6.5987269391E+00
 28  17   7.3558643601E+00   2.2159622703E+02   8.0133796407E+03   5.7490660632E+00   6.8036030350E+00
 28  18   7.3558643601E+00   2.2159622703E+02   8.0133796407E+03   5.7490660632E+00   6.8036030350E+00
 28  19   7.3558643601E+00   2.2159622703E+02   8.0133796407E+03   5.7490660632E+00   6.8036030350E+00
 28  20   7.3558643601E+00   2.2159622703E+02   8.0133796407E+03   5.7490660632E+00   6.8036030350E+00
 28  21   7.3558643601E+00   2.2159622703E+02   8.0133796407E+03   5.7490660632E+00   6.8036030350E+00
 28  22   8.9872254477E+00   3.1931487281E+02   1.3449549244E+04   6.2234675002E+00   7.0988704894E+00
 28  23   8.9872254477E+00   3.1931487281E+02   1.3449549244E+04   6.2234675002E+00   7.0988704894E+00
 28  24   8.9872254477E+00   3.1931487281E+02   1.3449549244E+04   6.2234675002E+00   7.0988704894E+00
 28  25   8.9872254477E+00   3.1931487281E+02   1.3449549244E+04   6.2234675002E+00   7.0988704894E+00
 28  26   8.9872254477E+00   3.1931487281E+02   1.3449549244E+04   6.2234675002E+00   7.0988704894E+00
 28  27   3.4744007765E+00   9.8052280538E+01   3.7333481594E+03   5.7360873198E+00   6.7955250651E+00
 28  28   3.4744007765E+00   9.8052280538E+01   3.7333481594E+03   5.7360873198E+00   6.7955250651E+00
 29   1   6.3032331238E+00   1.6709527516E+02   5.4206552126E+03   5.4198949580E+00   6.5987269391E+00
 29   2   7.3558643601E+00   2.2159622703E+02   8.0133796407E+03   5.7490660632E+00   6.8036030350E+00
 29   3   7.3558643601E+00   2.2159622703E+02   8.0133796407E+03   5.7490660632E+00   6.8036030350E+00
 29   4   7.3558643601E+00   2.2159622703E+02   8.0133796407E+03   5.7490660632E+00   6.8036030350E+00
 29   5   8.9872254477E+00   3.1931487281E+02   1.3449549244E+04   6.2234675002E+00   7.0988704894E+00
 29   6   8.9872254477E+00   3.1931487281E+02   1.3449549244E+04   6.2234675002E+00   7.0988704894E+00
 29   7   8.9872254477E+00   3.1931487281E+02   1.3449549244E+04   6.2234675002E+00   7.0988704894E+00
 29   8   8.9872254477E+00   3.1931487281E+02   1.3449549244E+04   6.2234675002E+00   7.0988704894E+00
 29   9   8.9872254477E+00   3.1931487281E+02   1.3449549244E+04   6.2234675002E+00   7.0988704894E+00
 29  10   3.4744007765E+00   9.8052280538E+01   3.7333481594E+03   5.7360873198E+00   6.7955250651E+00
 29  11   3.4744007765E+00   9.8052280538E+01   3.7333481594E+03   5.7360873198E+00   6.7955250651E+00
 29  12   3.4744007765E+00   9.8052280538E+01   3.7333481594E+03   5.7360873198E+00   6.7955250651E+00
 29  13   3.4744007765E+00   9.8052280538E+01   3.7333481594E+03   5.7360873198E+00   6.7955250651E+00
 29  14   3.4744007765E+00   9.8052280538E+01   3.7333481594E+03   5.7360873198E+00   6.7955250651E+00
 29  15   3.4744007765E+00   9.8052280538E+01   3.7333481594E+03   5.7360873198E+00   6.7955250651E+00
 29  16   6.3032331238E+00   1.6709527516E+02   5.4206552126E+03   5.4198949580E+00   6.5987269391E+00
 29  17   7.3558643601E+00   2.2159622703E+02   8.0133796407E+03   5.7490660632E+00   6.8036030350E+00
 29  18   7.3558643601E+00   2.2159622703E+02   8.0133796407E+03   5.7490660632E+00   6.8036030350E+00
 29  19   7.3558643601E+00   2.2159622703E+02   8.0133796407E+03   5.7490660632E+00   6.8036030350E+00
 29  20   7.3558643601E+00   2.2159622703E+02   8.0133796407E+03   5.7490660632E+00   6.8036030350E+00
 29  21   7.3558643601E+00   2.2159622703E+02   8.0133796407E+03   5.7490660632E+00   6.8036030350E+00
 29  22   8.9872254477E+00   3.1931487281E+02   1.3449549244E+04   6.2234675002E+00   7.0988704894E+00
 29  23   8.9872254477E+00   3.1931487281E+02   1.3449549244E+04   6.2234675002E+00   7.0988704894E+00
 29  24   8.9872254477E+00   3.1931487281E+02   1.3449549244E+04   6.2234675002E+00   7.0988704894E+00
 29  25   8.9872254477E+00   3.1931487281E+02   1.3449549244E+04   6.2234675002E+00   7.0988704894E+00
 29  26   8.9872254477E+00   3.1931487281E+02   1.3449549244E+04   6.2234675002E+00   7.0988704894E+00
 29  27   3.4744007765E+00   9.8052280538E+01   3.7333481594E+03   5.7360873198E+00   6.7955250651E+00
 29  28   3.4744007765E+00   9.8052280538E+01   3.7333481594E+03   5.7360873198E+00   6.7955250651E+00
 29  29   3.4744007765E+00   9.8052280538E+01   3.7333481594E+03   5.7360873198E+00   6.7955250651E+00
 30   1   6.3032331238E+00   1.6709527516E+02   5.4206552126E+03   5.4198949580E+00   6.5987269391E+00
 30   2   7.3558643601E+00   2.2159622703E+02   8.0133796407E+03   5.7490660632E+00   6.8036030350E+00
 30   3   7.3558643601E+00   2.2159622703E+02   8.0133796407E+03   5.7490660632E+00   6.8036030350E+00
 30   4   7.3558643601E+00   2.2159622703E+02   8.0133796407E+03   5.7490660632E+00   6.8036030350E+00
 30   5   8.9872254477E+00   3.1931487281E+02   1.3449549244E+04   6.2234675002E+00   7.0988704894E+00
 30   6   8.9872254477E+00   3.1931487281E+02   1.3449549244E+04   6.2234675002E+00   7.0988704894E+00
 30   7   8.9872254477E+00   3.1931487281E+02   1.3449549244E+04   6.2234675002E+00   7.0988704894E+00
 30   8   8.9872254477E+00   3.1931487281E+02   1.3449549244E+04   6.2234675002E+00   7.0988704894E+00
 30   9   8.9872254477E+00   3.1931487281E+02   1.3449549244E+04   6.2234675002E+00   7.0988704894E+00
 30  10   3.4744007765E+00   9.8052280538E+01   3.7333481594E+03   5.7360873198E+00   6.7955250651E+00
 30  11   3.4744007765E+00   9.8052280538E+01   3.7333481594E+03   5.7360873198E+00   6.7955250651E+00
 30  12   3.4744007765E+00   9.8052280538E+01   3.7333481594E+03   5.7360873198E+00   6.7955250651E+00
 30  13   3.4744007765E+00   9.8052280538E+01   3.7333481594E+03   5.7360873198E+00   6.7955250651E+00
 30  14   3.4744007765E+00   9.8052280538E+01   3.7333481594E+03   5.7360873198E+00   6.7955250651E+00
 30  15   3.4744007765E+00   9.8052280538E+01   3.7333481594E+03   5.7360873198E+00   6.7955250651E+00
[...]
   152     -2.170790   7 C  s               140      2.113627   7 C  s         
   139     -1.718778   7 C  s               198      1.355679   9 C  s         
    62      1.237944   3 N  py              148     -1.203676   7 C  s         
   108      1.132049   5 C  py              129      1.098609   6 C  s         
   493      1.072392  26 C  s               175     -1.041119   8 C  s         

 Vector  522  Occ=0.000000D+00  E= 2.660178D+01
              MO Center=  5.2D+00, -3.0D-01, -8.1D-04, r^2= 6.8D+00
   Bfn.  Coefficient  Atom+Function         Bfn.  Coefficient  Atom+Function  
  ----- ------------  ---------------      ----- ------------  ---------------
   481      1.655765  26 C  s               435     -1.354220  24 C  s         
   480     -1.346422  26 C  s               493     -1.172928  26 C  s         
   434      1.103400  24 C  s               489     -0.988149  26 C  s         
   458      0.849240  25 C  s               389     -0.726595  22 C  s         
   309      0.709186  18 N  s               457     -0.692276  25 C  s         

 Vector  523  Occ=0.000000D+00  E= 2.661404D+01
              MO Center=  6.5D+00,  9.4D-01, -4.0D-03, r^2= 7.4D+00
   Bfn.  Coefficient  Atom+Function         Bfn.  Coefficient  Atom+Function  
  ----- ------------  ---------------      ----- ------------  ---------------
   493      2.227175  26 C  s               458      2.040363  25 C  s         
   457     -1.661495  25 C  s               152      1.484736   7 C  s         
   401     -1.465938  22 C  s               402     -1.336068  22 C  px        
   153      1.328580   7 C  px              425      1.211670  23 C  px        
   466     -1.207321  25 C  s               424     -1.196571  23 C  s         

 Vector  524  Occ=0.000000D+00  E= 2.663374D+01
              MO Center=  2.0D+00, -5.2D-01,  8.6D-03, r^2= 9.9D+00
   Bfn.  Coefficient  Atom+Function         Bfn.  Coefficient  Atom+Function  
  ----- ------------  ---------------      ----- ------------  ---------------
    37      1.733388   2 N  s                60     -1.571279   3 N  s         
   175      1.505999   8 C  s               186     -1.487812   9 C  s         
    61      1.420619   3 N  px               39     -1.367380   2 N  py        
   185      1.209031   9 C  s               194      1.187704   9 C  s         
   493      1.122636  26 C  s               420     -1.100893  23 C  s         

 Vector  525  Occ=0.000000D+00  E= 2.665286D+01
              MO Center=  4.0D+00,  4.7D-01, -1.1D-04, r^2= 1.3D+01
   Bfn.  Coefficient  Atom+Function         Bfn.  Coefficient  Atom+Function  
  ----- ------------  ---------------      ----- ------------  ---------------
   420     -1.882133  23 C  s               309      1.713124  18 N  s         
   402      1.455514  22 C  px              412      1.364314  23 C  s         
   152      1.339755   7 C  s               435     -1.344263  24 C  s         
   426      1.274974  23 C  py               60      1.238451   3 N  s         
    39      1.231534   2 N  py              175     -1.146063   8 C  s         

 Vector  526  Occ=0.000000D+00  E= 2.666917D+01
              MO Center= -1.1D+00,  1.7D+00, -9.6D-03, r^2= 3.2D+00
   Bfn.  Coefficient  Atom+Function         Bfn.  Coefficient  Atom+Function  
  ----- ------------  ---------------      ----- ------------  ---------------
   163      2.399691   8 C  s               175     -2.061785   8 C  s         
   162     -1.953205   8 C  s               171     -1.737920   8 C  s         
   493     -1.578951  26 C  s                39      1.353906   2 N  py        
    37      1.189002   2 N  s               106      1.104078   5 C  s         
   152     -1.038572   7 C  s               167     -0.906081   8 C  s         

 Vector  527  Occ=0.000000D+00  E= 2.669153D+01
              MO Center= -2.5D-01, -1.2D+00,  2.2D-02, r^2= 2.5D+00
   Bfn.  Coefficient  Atom+Function         Bfn.  Coefficient  Atom+Function  
  ----- ------------  ---------------      ----- ------------  ---------------
   117      2.176627   6 C  s               198     -2.049181   9 C  s         
   125     -2.031634   6 C  s               534      1.864949  31 H  s         
   116     -1.771597   6 C  s                60      1.450669   3 N  s         
    61     -1.364669   3 N  px              493     -1.225547  26 C  s         
   102      1.213420   5 C  s               199     -1.178542   9 C  px        

 Vector  528  Occ=0.000000D+00  E= 2.673794D+01
              MO Center=  4.0D+00,  1.6D-01,  6.5D-04, r^2= 9.3D+00
   Bfn.  Coefficient  Atom+Function         Bfn.  Coefficient  Atom+Function  
  ----- ------------  ---------------      ----- ------------  ---------------
   389      1.621164  22 C  s               397     -1.450823  22 C  s         
   534      1.389208  31 H  s               388     -1.316320  22 C  s         
   493     -1.233126  26 C  s               481      1.111603  26 C  s         
    94     -0.975365   5 C  s               480     -0.899208  26 C  s         
   489     -0.852645  26 C  s               186     -0.832746   9 C  s         

 Vector  529  Occ=0.000000D+00  E= 2.675586D+01
              MO Center=  2.7D+00,  2.0D-01,  4.8D-03, r^2= 1.3D+01
   Bfn.  Coefficient  Atom+Function         Bfn.  Coefficient  Atom+Function  
  ----- ------------  ---------------      ----- ------------  ---------------
   534     -2.025779  31 H  s               397      1.846440  22 C  s         
   389     -1.647293  22 C  s               198      1.370114   9 C  s         
    94     -1.359112   5 C  s                37     -1.350347   2 N  s         
   388      1.336290  22 C  s               102      1.185259   5 C  s         
   186     -1.109998   9 C  s                93      1.101038   5 C  s         

 Vector  530  Occ=0.000000D+00  E= 2.678806D+01
              MO Center=  4.5D+00,  3.8D-01, -1.5D-03, r^2= 6.9D+00
   Bfn.  Coefficient  Atom+Function         Bfn.  Coefficient  Atom+Function  
  ----- ------------  ---------------      ----- ------------  ---------------
   534      3.827281  31 H  s               198     -2.321160   9 C  s         
   309      2.274577  18 N  s               420     -2.138479  23 C  s         
   425      2.148424  23 C  px              397      1.877891  22 C  s         
   424     -1.828115  23 C  s                60      1.757687   3 N  s         
   412      1.655398  23 C  s               493     -1.605898  26 C  s         

 Vector  531  Occ=0.000000D+00  E= 3.963192D+01
              MO Center=  6.2D+00,  1.4D+00, -4.2D-03, r^2= 6.3D+00
   Bfn.  Coefficient  Atom+Function         Bfn.  Coefficient  Atom+Function  
  ----- ------------  ---------------      ----- ------------  ---------------
   274      1.595287  17 N  s               320      1.516248  19 N  s         
   273     -1.336212  17 N  s               366      1.286368  21 N  s         
   319     -1.268210  19 N  s               282     -1.145482  17 N  s         
   470      1.110496  25 C  s               365     -1.076761  21 N  s         
   309     -0.942880  18 N  s               328     -0.899906  19 N  s         

 Vector  532  Occ=0.000000D+00  E= 3.965309D+01
              MO Center= -3.8D-03,  6.3D-01,  1.0D-03, r^2= 4.7D+00
   Bfn.  Coefficient  Atom+Function         Bfn.  Coefficient  Atom+Function  
  ----- ------------  ---------------      ----- ------------  ---------------
    25      2.459439   2 N  s                24     -2.055226   2 N  s         
    33     -1.703380   2 N  s               493      1.174357  26 C  s         
    61      1.166044   3 N  px              470     -1.116170  25 C  s         
   194      1.107165   9 C  s               198      1.069731   9 C  s         
    60     -1.059302   3 N  s               200      1.042033   9 C  py        

 Vector  533  Occ=0.000000D+00  E= 3.966216D+01
              MO Center=  5.1D+00,  3.2D-01,  7.3D-04, r^2= 7.9D+00
   Bfn.  Coefficient  Atom+Function         Bfn.  Coefficient  Atom+Function  
  ----- ------------  ---------------      ----- ------------  ---------------
   320      1.465555  19 N  s               366     -1.332223  21 N  s         
   319     -1.224619  19 N  s               297     -1.158120  18 N  s         
   365      1.114320  21 N  s                71      0.981771   4 N  s         
   296      0.968323  18 N  s                70     -0.821326   4 N  s         
   328     -0.816217  19 N  s               374      0.717890  21 N  s         

 Vector  534  Occ=0.000000D+00  E= 3.969169D+01
              MO Center=  2.2D+00, -6.9D-01,  9.3D-03, r^2= 5.1D+00
   Bfn.  Coefficient  Atom+Function         Bfn.  Coefficient  Atom+Function  
  ----- ------------  ---------------      ----- ------------  ---------------
    71      1.596591   4 N  s                70     -1.334712   4 N  s         
    48      1.295207   3 N  s               297      1.230408  18 N  s         
    47     -1.083030   3 N  s               296     -1.027963  18 N  s         
   533      0.936933  31 H  s                79     -0.906632   4 N  s         
   305     -0.909397  18 N  s                61     -0.895838   3 N  px        

 Vector  535  Occ=0.000000D+00  E= 3.969481D+01
              MO Center=  5.2D+00,  7.2D-02,  4.2D-03, r^2= 9.3D+00
   Bfn.  Coefficient  Atom+Function         Bfn.  Coefficient  Atom+Function  
  ----- ------------  ---------------      ----- ------------  ---------------
   274      1.476307  17 N  s                71      1.239178   4 N  s         
   273     -1.234304  17 N  s               297     -1.172787  18 N  s         
   320     -1.066308  19 N  s                70     -1.035780   4 N  s         
   296      0.979762  18 N  s               153     -0.899370   7 C  px        
   319      0.890191  19 N  s               493      0.857134  26 C  s         

 Vector  536  Occ=0.000000D+00  E= 3.974386D+01
              MO Center=  2.0D+00, -5.9D-01,  6.4D-03, r^2= 4.4D+00
   Bfn.  Coefficient  Atom+Function         Bfn.  Coefficient  Atom+Function  
  ----- ------------  ---------------      ----- ------------  ---------------
    48      2.117752   3 N  s                47     -1.768367   3 N  s         
    56     -1.728151   3 N  s                71     -1.307697   4 N  s         
    70      1.091505   4 N  s               196      1.054669   9 C  py        
    79      1.034309   4 N  s                52     -0.736662   3 N  s         
   425     -0.678818  23 C  px               67      0.617336   3 N  dyy       

 Vector  537  Occ=0.000000D+00  E= 3.980549D+01
              MO Center=  5.5D+00,  5.0D-01, -4.7D-03, r^2= 4.5D+00
   Bfn.  Coefficient  Atom+Function         Bfn.  Coefficient  Atom+Function  
  ----- ------------  ---------------      ----- ------------  ---------------
   351      1.876814  20 N  s               420     -1.693213  23 C  s         
   398     -1.667144  22 C  px              282      1.620357  17 N  s         
   343     -1.625522  20 N  s               422      1.491774  23 C  py        
   342      1.355903  20 N  s               366      1.285479  21 N  s         
   374     -1.289804  21 N  s               399     -1.284975  22 C  py        

 Vector  538  Occ=0.000000D+00  E= 3.981849D+01
              MO Center=  5.2D+00, -1.5D-01, -2.7D-03, r^2= 4.7D+00
   Bfn.  Coefficient  Atom+Function         Bfn.  Coefficient  Atom+Function  
  ----- ------------  ---------------      ----- ------------  ---------------
   343      1.709152  20 N  s               351     -1.684951  20 N  s         
   470     -1.643309  25 C  s               342     -1.425075  20 N  s         
   305      1.337802  18 N  s               297     -1.313537  18 N  s         
   445     -1.274742  24 C  py              422      1.185552  23 C  py        
   328      1.144004  19 N  s               374     -1.143468  21 N  s         

 Vector  539  Occ=0.000000D+00  E= 5.556473D+01
              MO Center=  1.4D+00,  1.7D+00, -5.3D-02, r^2= 1.8D+00
   Bfn.  Coefficient  Atom+Function         Bfn.  Coefficient  Atom+Function  
  ----- ------------  ---------------      ----- ------------  ---------------
     2      2.642989   1 O  s                 1     -2.249807   1 O  s         
   152      1.118544   7 C  s                10     -1.056559   1 O  s         
     6     -1.021575   1 O  s               154     -0.704449   7 C  py        
   251     -0.693253  16 O  s               150      0.668285   7 C  py        
   129     -0.644907   6 C  s               198     -0.641420   9 C  s         

 Vector  540  Occ=0.000000D+00  E= 5.557240D+01
              MO Center=  4.0D+00, -2.0D+00, -1.0D-02, r^2= 1.8D+00
   Bfn.  Coefficient  Atom+Function         Bfn.  Coefficient  Atom+Function  
  ----- ------------  ---------------      ----- ------------  ---------------
   251      2.642565  16 O  s               250     -2.249713  16 O  s         
   493      1.606793  26 C  s               259     -1.065201  16 O  s         
   255     -1.020556  16 O  s               470     -0.851764  25 C  s         
   494      0.854716  26 C  px              449      0.805448  24 C  py        
     2      0.693675   1 O  s               198      0.627928   9 C  s         


 center of mass
 --------------
 x =   6.10772339 y =   0.33918730 z =  -0.00480704

 moments of inertia (a.u.)
 ------------------
        2409.528972777392        -542.843417187985           5.944972711284
        -542.843417187985        9601.851425115818          19.075012753884
           5.944972711284          19.075012753884       11999.212560281969

     Multipole analysis of the density
     ---------------------------------

     L   x y z        total         alpha         beta         nuclear
     -   - - -        -----         -----         ----         -------
     0   0 0 0     -0.000000    -72.000000    -72.000000    144.000000

     1   1 0 0     -3.469872   -434.186196   -434.186196    864.902521
     1   0 1 0      0.709795    -25.528752    -25.528752     51.767298
     1   0 0 1      0.064910      0.343911      0.343911     -0.622911

     2   2 0 0    -68.538698  -5205.599621  -5205.599621  10342.660543
     2   1 1 0     15.353396   -287.301433   -287.301433    589.956263
     2   1 0 1      0.112106      3.646758      3.646758     -7.181410
     2   0 2 0    -92.200777   -709.152950   -709.152950   1326.105123
     2   0 1 1     -0.018976      5.338381      5.338381    -10.695738
     2   0 0 2    -89.094074    -47.483636    -47.483636      5.873197


 Task  times  cpu:      711.9s     wall:      713.1s


                                NWChem Input Module
                                -------------------


 Summary of allocated global arrays
-----------------------------------
  No active global arrays



                         GA Statistics for process    0
                         ------------------------------

       create   destroy   get      put      acc     scatter   gather  read&inc
calls:  823      823     2.00e+05 3988     1.49e+05    0        0     1.96e+04 
number of processes/call -4.25e+13 1.57e+13 4.76e+13 0.00e+00 0.00e+00
bytes total:             1.42e+09 3.24e+08 6.26e+08 0.00e+00 0.00e+00 1.57e+05
bytes remote:            1.35e+09 2.95e+08 6.02e+08 0.00e+00 0.00e+00 0.00e+00
Max memory consumed for GA by this process: 1442872 bytes

MA_summarize_allocated_blocks: starting scan ...
heap block 'xdm_ml', handle 0, address 0xf4a1928:
	type of elements:		double precision
	number of elements:		12
	address of client space:	0xf4a1980
	index for client space:		8333245
	total number of bytes:		192
heap block 'xdm_v', handle 22, address 0xf4a1890:
	type of elements:		double precision
	number of elements:		4
	address of client space:	0xf4a1900
	index for client space:		8333229
	total number of bytes:		152
MA_summarize_allocated_blocks: scan completed: 2 heap blocks, 0 stack blocks
MA usage statistics:

	allocation statistics:
					      heap	     stack
					      ----	     -----
	current number of blocks	         2	         0
	maximum number of blocks	        26	        55
	current total bytes		       344	         0
	maximum total bytes		    232760	  81210344
	maximum total K-bytes		       233	     81211
	maximum total M-bytes		         1	        82


                                     CITATION
                                     --------
                Please cite the following reference when publishing
                           results obtained with NWChem:

          E. Apr, E. J. Bylaska, W. A. de Jong, N. Govind, K. Kowalski,
       T. P. Straatsma, M. Valiev, H. J. J. van Dam, Y. Alexeev, J. Anchell,
       V. Anisimov, F. W. Aquino, R. Atta-Fynn, J. Autschbach, N. P. Bauman,
     J. C. Becca, D. E. Bernholdt, K. Bhaskaran-Nair, S. Bogatko, P. Borowski,
        J. Boschen, J. Brabec, A. Bruner, E. Caut, Y. Chen, G. N. Chuev,
      C. J. Cramer, J. Daily, M. J. O. Deegan, T. H. Dunning Jr., M. Dupuis,
   K. G. Dyall, G. I. Fann, S. A. Fischer, A. Fonari, H. Frchtl, L. Gagliardi,
      J. Garza, N. Gawande, S. Ghosh, K. Glaesemann, A. W. Gtz, J. Hammond,
       V. Helms, E. D. Hermes, K. Hirao, S. Hirata, M. Jacquelin, L. Jensen,
   B. G. Johnson, H. Jnsson, R. A. Kendall, M. Klemm, R. Kobayashi, V. Konkov,
      S. Krishnamoorthy, M. Krishnan, Z. Lin, R. D. Lins, R. J. Littlefield,
      A. J. Logsdail, K. Lopata, W. Ma, A. V. Marenich, J. Martin del Campo,
   D. Mejia-Rodriguez, J. E. Moore, J. M. Mullin, T. Nakajima, D. R. Nascimento,
    J. A. Nichols, P. J. Nichols, J. Nieplocha, A. Otero-de-la-Roza, B. Palmer,
    A. Panyala, T. Pirojsirikul, B. Peng, R. Peverati, J. Pittner, L. Pollack,
   R. M. Richard, P. Sadayappan, G. C. Schatz, W. A. Shelton, D. W. Silverstein,
   D. M. A. Smith, T. A. Soares, D. Song, M. Swart, H. L. Taylor, G. S. Thomas,
            V. Tipparaju, D. G. Truhlar, K. Tsemekhman, T. Van Voorhis,
     . Vzquez-Mayagoitia, P. Verma, O. Villa, A. Vishnu, K. D. Vogiatzis,
        D. Wang, J. H. Weare, M. J. Williamson, T. L. Windus, K. Woliski,
        A. T. Wong, Q. Wu, C. Yang, Q. Yu, M. Zacharias, Z. Zhang, Y. Zhao,
                                and R. J. Harrison
                        "NWChem: Past, present, and future
                         J. Chem. Phys. 152, 184102 (2020)
                               doi:10.1063/5.0004997

                                      AUTHORS
                                      -------
     E. Apra, E. J. Bylaska, N. Govind, K. Kowalski, M. Valiev, W. A. de Jong,
      T. P. Straatsma, H. J. J. van Dam, D. Wang, T. L. Windus, N. P. Bauman,
       A. Panyala, J. Hammond, J. Autschbach, K. Bhaskaran-Nair, J. Brabec,
    K. Lopata, S. A. Fischer, S. Krishnamoorthy, M. Jacquelin, W. Ma, M. Klemm,
       O. Villa, Y. Chen, V. Anisimov, F. Aquino, S. Hirata, M. T. Hackler,
           Eric Hermes, L. Jensen, J. E. Moore, J. C. Becca, V. Konjkov,
            D. Mejia-Rodriguez, T. Risthaus, M. Malagoli, A. Marenich,
   A. Otero-de-la-Roza, J. Mullin, P. Nichols, R. Peverati, J. Pittner, Y. Zhao,
        P.-D. Fan, A. Fonari, M. J. Williamson, R. J. Harrison, J. R. Rehr,
      M. Dupuis, D. Silverstein, D. M. A. Smith, J. Nieplocha, V. Tipparaju,
      M. Krishnan, B. E. Van Kuiken, A. Vazquez-Mayagoitia, M. Swart, Q. Wu,
   T. Van Voorhis, A. A. Auer, M. Nooijen, L. D. Crosby, E. Brown, G. Cisneros,
     G. I. Fann, H. Fruchtl, J. Garza, K. Hirao, R. A. Kendall, J. A. Nichols,
       K. Tsemekhman, K. Wolinski, J. Anchell, D. E. Bernholdt, P. Borowski,
       T. Clark, D. Clerc, H. Dachsel, M. J. O. Deegan, K. Dyall, D. Elwood,
      E. Glendening, M. Gutowski, A. C. Hess, J. Jaffe, B. G. Johnson, J. Ju,
        R. Kobayashi, R. Kutteh, Z. Lin, R. Littlefield, X. Long, B. Meng,
      T. Nakajima, S. Niu, L. Pollack, M. Rosing, K. Glaesemann, G. Sandrone,
      M. Stave, H. Taylor, G. Thomas, J. H. van Lenthe, A. T. Wong, Z. Zhang.

 Total times  cpu:      711.9s     wall:      713.3s
